100
Step 0
Atom 4.7764 3.1783 5.6850
Atom 7.7910 5.5191 5.2214
Atom 3.7228 4.1260 2.5017
Atom 2.2327 4.8128 3.2619
Atom 0.7520 9.7200 5.0725
Atom 8.6777 8.2026 4.3984
Atom 0.0045 3.7708 5.5507
Atom 6.3002 5.4834 9.0220
Atom 4.4041 0.1956 5.2282
Atom 2.4337 7.8546 0.4329
Atom 3.8165 4.8051 6.3687
Atom 5.9620 0.1232 8.3759
Atom 9.9320 9.3738 3.9316
Atom 5.7949 4.9236 8.0716
Atom 1.5720 4.9267 8.6184
Atom 4.7290 1.9472 0.1738
Atom 6.0115 1.2749 7.8090
Atom 7.3557 1.2368 8.7267
Atom 8.8234 7.7498 1.4946
Atom 4.9380 3.9417 8.9398
Atom 8.3553 0.0037 0.4423
Atom 9.3905 0.3086 9.7441
Atom 2.2375 0.1831 4.7227
Atom 7.3528 4.4605 9.6927
Atom 9.0629 3.1298 9.7969
Atom 7.2338 0.7201 1.9576
Atom 3.5400 5.0273 9.9078
Atom 0.0389 5.6029 3.8676
Atom 1.7862 3.9229 6.2525
Atom 4.7896 6.4758 2.8741
Atom 3.1498 3.3160 9.8082
Atom 3.5156 4.7625 4.4789
Atom 3.1657 8.6746 3.4927
Atom 3.1681 3.2069 4.0942
Atom 6.6632 7.6819 9.8189
Atom 8.3952 9.4954 0.4323
Atom 6.5512 1.1278 2.0359
Atom 1.8018 3.7793 4.6994
Atom 8.9691 9.7352 6.8051
Atom 6.5207 9.2427 6.2436
Atom 1.3278 6.7735 7.4462
Atom 0.2429 3.1240 3.9798
Atom 8.7887 2.5617 5.5701
Atom 7.6325 8.9209 1.9014
Atom 1.2285 8.2771 6.7472
Atom 1.7831 2.5550 1.8894
Atom 6.6106 0.9335 5.1777
Atom 5.0181 3.0507 9.9822
Atom 3.5588 0.9262 6.7993
Atom 9.1820 3.0568 4.7339
Atom 9.9390 5.5293 0.4469
Atom 6.5537 9.5007 1.1494
Atom 0.1438 2.5733 2.1582
Atom 3.8942 7.5522 2.8144
Atom 7.7749 8.1740 7.6667
Atom 9.9661 2.8724 0.4029
Atom 7.5521 1.7128 5.3360
Atom 2.9486 2.7187 5.7135
Atom 2.1859 0.4981 9.7652
Atom 3.4484 1.9071 3.7634
Atom 8.7611 9.8599 5.1158
Atom 4.7775 1.4925 9.5672
Atom 8.5500 0.5269 7.1796
Atom 7.6379 9.1050 0.3224
Atom 6.1302 9.7666 6.9075
Atom 5.7840 2.5477 6.9537
Atom 1.3372 1.6866 5.4680
Atom 3.2919 3.1886 0.0392
Atom 5.3662 1.1417 8.4967
Atom 7.9507 8.3861 0.6697
Atom 3.9770 1.3029 5.4611
Atom 7.8077 3.6018 9.0178
Atom 9.6744 7.9173 1.5982
Atom 3.9838 2.0433 7.9845
Atom 9.2383 4.7717 3.5770
Atom 4.3257 5.6360 1.3477
Atom 4.3100 3.6346 8.5279
Atom 2.6178 9.0404 0.8124
Atom 1.5065 8.3113 1.5090
Atom 5.0976 5.2870 3.7649
Atom 8.0338 8.2099 1.6142
Atom 8.1612 1.6912 7.0546
Atom 6.1513 4.9576 0.9875
Atom 4.4816 1.1568 0.9120
Atom 6.5954 7.4337 6.0597
Atom 6.4464 4.4677 3.4104
Atom 9.8239 6.5381 3.3461
Atom 6.3434 7.6636 3.1280
Atom 4.7866 6.5605 9.0579
Atom 7.1411 7.8784 2.7480
Atom 9.8916 1.3291 6.0013
Atom 1.0694 7.3165 4.7101
Atom 1.1547 0.2601 3.8808
Atom 8.9732 6.7952 4.3473
Atom 1.1845 9.9008 8.2647
Atom 8.7234 7.6085 6.4968
Atom 0.3249 3.7745 9.3479
Atom 1.2551 1.2149 4.3465
Atom 6.7499 7.2362 0.4288
Atom 0.0052 8.1675 4.5636
100
Step 10
Atom 4.8017 3.1868 5.6454
Atom 7.8312 5.5209 5.2319
Atom 3.7278 4.1191 2.5039
Atom 2.2652 4.8049 3.2157
Atom 0.7940 9.7087 5.0697
Atom 8.6815 8.1824 4.4011
Atom 9.9935 3.7708 5.6032
Atom 6.2482 5.5017 9.0352
Atom 4.3843 0.2664 5.2567
Atom 2.5117 7.8945 0.4483
Atom 3.8039 4.8429 6.3609
Atom 5.9852 0.1667 8.3971
Atom 9.8525 9.3517 3.9283
Atom 5.8062 4.8760 8.0756
Atom 1.5642 4.9758 8.5957
Atom 4.6823 1.9233 0.1364
Atom 6.0261 1.2007 7.8627
Atom 7.4140 1.2553 8.7503
Atom 8.8626 7.7806 1.4345
Atom 4.8716 3.9375 8.9208
Atom 8.3508 9.9466 0.4862
Atom 9.4477 0.3252 9.8047
Atom 2.2219 0.2048 4.7408
Atom 7.3706 4.4725 9.6201
Atom 9.1316 3.1246 9.8111
Atom 7.2065 0.6490 1.9162
Atom 3.5301 5.0183 9.9504
Atom 0.0558 5.6075 3.8758
Atom 1.7096 3.8269 6.2414
Atom 4.8110 6.4929 2.8673
Atom 3.1626 3.2619 9.7584
Atom 3.5883 4.7611 4.5340
Atom 3.1298 8.6574 3.4810
Atom 3.1878 3.1756 4.0742
Atom 6.5976 7.6878 9.8499
Atom 8.3527 9.5911 0.4403
Atom 6.5766 1.0682 2.0657
Atom 1.8079 3.7850 4.7153
Atom 8.9532 9.7150 6.8350
Atom 6.5681 9.2585 6.2455
Atom 1.3285 6.7620 7.4477
Atom 0.2591 3.1225 4.0206
Atom 8.7789 2.4974 5.5809
Atom 7.6580 8.8466 1.9156
Atom 1.1815 8.3393 6.7507
Atom 1.7743 2.5466 1.8320
Atom 6.6586 0.8974 5.1858
Atom 5.0085 2.9915 0.0416
Atom 3.5454 0.9381 6.7764
Atom 9.1995 3.0360 4.6683
Atom 9.9104 5.5113 0.4444
Atom 6.5010 9.5090 1.1765
Atom 0.1961 2.6202 2.1930
Atom 3.8866 7.5079 2.8466
Atom 7.7194 8.1835 7.6806
Atom 9.9786 2.8400 0.4619
Atom 7.6273 1.7715 5.2963
Atom 2.9028 2.7948 5.7622
Atom 2.1402 0.4270 9.7357
Atom 3.4264 1.8986 3.7376
Atom 8.7234 9.8202 5.1147
Atom 4.7185 1.4626 9.5627
Atom 8.6222 0.5844 7.1877
Atom 7.6233 9.1252 0.3462
Atom 6.1309 9.7458 6.8327
Atom 5.7487 2.5927 6.9596
Atom 1.3337 1.7387 5.4508
Atom 3.2458 3.1776 9.9858
Atom 5.4376 1.1346 8.5207
Atom 7.9768 8.3844 0.7420
Atom 4.0127 1.4216 5.5174
Atom 7.8235 3.6137 9.0811
Atom 9.7327 7.8933 1.5854
Atom 3.9880 2.0366 7.9808
Atom 9.2592 4.7661 3.5636
Atom 4.3376 5.6242 1.3956
Atom 4.2726 3.6574 8.5186
Atom 2.6198 9.0453 0.7788
Atom 1.4878 8.2783 1.5334
Atom 5.1032 5.3552 3.7819
Atom 8.0151 8.1937 1.5948
Atom 8.1559 1.6717 7.0103
Atom 6.1236 4.9599 0.9312
Atom 4.4310 1.1816 0.9853
Atom 6.5993 7.4286 6.0697
Atom 6.4709 4.4742 3.4193
Atom 9.7703 6.5480 3.2973
Atom 6.3723 7.6658 3.0872
Atom 4.7637 6.5759 9.1188
Atom 7.1297 7.8961 2.7189
Atom 9.8940 1.2924 5.9892
Atom 1.0565 7.2872 4.7057
Atom 1.1755 0.2271 3.7865
Atom 9.0490 6.8484 4.3071
Atom 1.2057 9.9725 8.2415
Atom 8.7040 7.5979 6.4367
Atom 0.3051 3.7748 9.3146
Atom 1.2312 1.2194 4.3550
Atom 6.7439 7.2468 0.4354
Atom 9.9688 8.1969 4.5478
100
Step 20
Atom 4.8289 3.1957 5.6028
Atom 7.8747 5.5230 5.2433
Atom 3.7332 4.1116 2.5062
Atom 2.3003 4.7962 3.1658
Atom 0.8394 9.6964 5.0669
Atom 8.6856 8.1606 4.4040
Atom 9.9817 3.7708 5.6598
Atom 6.1919 5.5213 9.0494
Atom 4.3629 0.3428 5.2876
Atom 2.5960 7.9374 0.4650
Atom 3.7904 4.8835 6.3526
Atom 6.0105 0.2139 8.4202
Atom 9.7667 9.3276 3.9248
Atom 5.8183 4.8243 8.0801
Atom 1.5558 5.0287 8.5713
Atom 4.6319 1.8975 0.0960
Atom 6.0419 1.1206 7.9206
Atom 7.4758 1.2736 8.7767
Atom 8.9050 7.8140 1.3697
Atom 4.8002 3.9329 8.9003
Atom 8.3458 9.8848 0.5336
Atom 9.5094 0.3432 9.8703
Atom 2.2046 0.2284 4.7606
Atom 7.3896 4.4854 9.5417
Atom 9.2058 3.1188 9.8265
Atom 7.1770 0.5721 1.8715
Atom 3.5194 5.0085 9.9965
Atom 0.0739 5.6122 3.8851
Atom 1.6268 3.7233 6.2294
Atom 4.8342 6.5110 2.8599
Atom 3.1765 3.2036 9.7048
Atom 3.6667 4.7596 4.5934
Atom 3.0814 8.6421 3.4659
Atom 3.2090 3.1416 4.0527
Atom 6.5270 7.6942 9.8834
Atom 8.3068 9.6945 0.4489
Atom 6.6048 1.0028 2.0964
Atom 1.8144 3.7911 4.7324
Atom 8.9359 9.6931 6.8673
Atom 6.6196 9.2762 6.2477
Atom 1.3292 6.7496 7.4493
Atom 0.2767 3.1209 4.0646
Atom 8.7683 2.4280 5.5926
Atom 7.6854 8.7663 1.9310
Atom 1.1306 8.4066 6.7544
Atom 1.7653 2.5377 1.7705
Atom 6.7114 0.8611 5.1990
Atom 4.9983 2.9280 0.1056
Atom 3.5314 0.9514 6.7517
Atom 9.2186 3.0134 4.5975
Atom 9.8793 5.4917 0.4417
Atom 6.4440 9.5181 1.2057
Atom 0.2525 2.6708 2.2306
Atom 3.8785 7.4600 2.8812
Atom 7.6594 8.1938 7.6957
Atom 9.9921 2.8050 0.5256
Atom 7.7084 1.8349 5.2535
Atom 2.8533 2.8769 5.8150
Atom 2.0908 0.3503 9.7040
Atom 3.4025 1.8897 3.7098
Atom 8.6827 9.7774 5.1136
Atom 4.6548 1.4304 9.5579
Atom 8.7000 0.6463 7.1965
Atom 7.6074 9.1471 0.3719
Atom 6.1319 9.7235 6.7520
Atom 5.7110 2.6402 6.9665
Atom 1.3300 1.7949 5.4321
Atom 3.1961 3.1656 9.9281
Atom 5.5146 1.1271 8.5466
Atom 8.0049 8.3828 0.8202
Atom 4.0514 1.5499 5.5784
Atom 7.8402 3.6265 9.1493
Atom 9.7955 7.8674 1.5716
Atom 3.9925 2.0294 7.9766
Atom 9.2817 4.7601 3.5491
Atom 4.3505 5.6115 1.4473
Atom 4.2324 3.6820 8.5085
Atom 2.6219 9.0507 0.7426
Atom 1.4606 8.2458 1.5731
Atom 5.1093 5.4288 3.8003
Atom 7.9949 8.1765 1.5740
Atom 8.1500 1.6506 6.9624
Atom 6.0936 4.9623 0.8705
Atom 4.3763 1.2084 1.0642
Atom 6.6036 7.4231 6.0804
Atom 6.4974 4.4814 3.4288
Atom 9.7123 6.5590 3.2444
Atom 6.4037 7.6682 3.0428
Atom 4.7390 6.5922 9.1847
Atom 7.1176 7.9152 2.6873
Atom 9.8966 1.2527 5.9760
Atom 1.0425 7.2558 4.7009
Atom 1.1978 0.1914 3.6847
Atom 9.1309 6.9060 4.2636
Atom 1.2285 0.0500 8.2163
Atom 8.6831 7.5865 6.3717
Atom 0.2837 3.7750 9.2787
Atom 1.2054 1.2245 4.3641
Atom 6.7382 7.2591 0.4441
Atom 9.9298 8.2287 4.5309
100
Step 30
Atom 4.8570 3.2048 5.5586
Atom 7.9201 5.5251 5.2549
Atom 3.7388 4.1037 2.5085
Atom 2.3367 4.7870 3.1139
Atom 0.8863 9.6837 5.0639
Atom 8.6899 8.1379 4.4070
Atom 9.9694 3.7707 5.7187
Atom 6.1333 5.5416 9.0643
Atom 4.3406 0.4223 5.3197
Atom 2.6835 7.9821 0.4824
Atom 3.7764 4.9254 6.3442
Atom 6.0371 0.2630 8.4444
Atom 9.6776 9.3023 3.9211
Atom 5.8307 4.7703 8.0850
Atom 1.5471 5.0836 8.5459
Atom 4.5795 1.8707 0.0539
Atom 6.0582 1.0373 7.9807
Atom 7.5390 1.2917 8.8048
Atom 8.9490 7.8486 1.3023
Atom 4.7263 3.9279 8.8790
Atom 8.3406 9.8206 0.5829
Atom 9.5736 0.3619 9.9384
Atom 2.1862 0.2531 4.7815
Atom 7.4092 4.4988 9.4602
Atom 9.2829 3.1128 9.8425
Atom 7.1464 0.4920 1.8250
Atom 3.5085 4.9983 0.0444
Atom 0.0925 5.6165 3.8953
Atom 1.5409 3.6155 6.2168
Atom 4.8585 6.5294 2.8520
Atom 3.1909 3.1430 9.6491
Atom 3.7481 4.7580 4.6552
Atom 3.0246 8.6263 3.4472
Atom 3.2308 3.1063 4.0305
Atom 6.4537 7.7010 9.9184
Atom 8.2589 9.8018 0.4579
Atom 6.6351 0.9335 2.1267
Atom 1.8212 3.7973 4.7501
Atom 8.9181 9.6704 6.9008
Atom 6.6734 9.2949 6.2501
Atom 1.3299 6.7366 7.4508
Atom 0.2951 3.1193 4.1104
Atom 8.7573 2.3558 5.6048
Atom 7.7141 8.6829 1.9469
Atom 1.0774 8.4766 6.7581
Atom 1.7565 2.5286 1.7070
Atom 6.7673 0.8255 5.2160
Atom 4.9878 2.8622 0.1717
Atom 3.5173 0.9658 6.7262
Atom 9.2386 2.9899 4.5239
Atom 9.8469 5.4712 0.4391
Atom 6.3848 9.5275 1.2360
Atom 0.3110 2.7234 2.2698
Atom 3.8701 7.4100 2.9170
Atom 7.5971 8.2047 7.7116
Atom 0.0060 2.7686 0.5917
Atom 7.7927 1.9007 5.2091
Atom 2.8019 2.9622 5.8697
Atom 2.0396 0.2707 9.6710
Atom 3.3775 1.8807 3.6809
Atom 8.6404 9.7329 5.1124
Atom 4.5886 1.3970 9.5528
Atom 8.7807 0.7106 7.2057
Atom 7.5909 9.1699 0.3986
Atom 6.1331 9.7005 6.6681
Atom 5.6723 2.6882 6.9740
Atom 1.3261 1.8533 5.4128
Atom 3.1445 3.1532 9.8682
Atom 5.5946 1.1194 8.5735
Atom 8.0341 8.3811 0.9014
Atom 4.0915 1.6832 5.6419
Atom 7.8572 3.6398 9.2202
Atom 9.8607 7.8406 1.5573
Atom 3.9972 2.0219 7.9722
Atom 9.3053 4.7537 3.5339
Atom 4.3639 5.5981 1.5008
Atom 4.1907 3.7075 8.4977
Atom 2.6241 9.0562 0.7051
Atom 1.4230 8.2152 1.6272
Atom 5.1155 5.5053 3.8193
Atom 7.9741 8.1587 1.5526
Atom 8.1438 1.6287 6.9126
Atom 6.0622 4.9649 0.8073
Atom 4.3193 1.2365 1.1460
Atom 6.6082 7.4174 6.0915
Atom 6.5248 4.4891 3.4386
Atom 9.6518 6.5706 3.1894
Atom 6.4365 7.6707 2.9963
Atom 4.7133 6.6089 9.2534
Atom 7.1050 7.9351 2.6545
Atom 9.8994 1.2115 5.9623
Atom 1.0278 7.2233 4.6958
Atom 1.2210 0.1545 3.5790
Atom 9.2159 6.9660 4.2182
Atom 1.2522 0.1306 8.1901
Atom 8.6614 7.5748 6.3041
Atom 0.2615 3.7752 9.2414
Atom 1.1786 1.2300 4.3737
Atom 6.7328 7.2729 0.4552
Atom 9.8894 8.2621 4.5136
100
Step 40
Atom 4.8857 3.2139 5.5135
Atom 7.9665 5.5272 5.2665
Atom 3.7445 4.0956 2.5108
Atom 2.3737 4.7777 3.0611
Atom 0.9341 9.6706 5.0610
Atom 8.6943 8.1148 4.4100
Atom 9.9568 3.7706 5.7786
Atom 6.0735 5.5622 9.0795
Atom 4.3180 0.5034 5.3524
Atom 2.7728 8.0276 0.5002
Atom 3.7621 4.9678 6.3357
Atom 6.0646 0.3132 8.4694
Atom 9.5867 9.2763 3.9174
Atom 5.8434 4.7151 8.0901
Atom 1.5383 5.1395 8.5201
Atom 4.5263 1.8433 0.0110
Atom 6.0749 0.9525 8.0420
Atom 7.6037 1.3089 8.8344
Atom 8.9939 7.8839 1.2337
Atom 4.6510 3.9229 8.8575
Atom 8.3352 9.7551 0.6332
Atom 9.6389 0.3810 0.0079
Atom 2.1670 0.2784 4.8030
Atom 7.4291 4.5124 9.3773
Atom 9.3615 3.1065 9.8589
Atom 7.1152 0.4103 1.7776
Atom 3.4974 4.9878 0.0933
Atom 0.1115 5.6202 3.9061
Atom 1.4533 3.5057 6.2039
Atom 4.8834 6.5480 2.8438
Atom 3.2055 3.0811 9.5924
Atom 3.8312 4.7563 4.7181
Atom 2.9625 8.6106 3.4277
Atom 3.2528 3.0702 4.0079
Atom 6.3792 7.7080 9.9541
Atom 8.2100 9.9111 0.4670
Atom 6.6669 0.8608 2.1556
Atom 1.8281 3.8036 4.7681
Atom 8.8999 9.6473 6.9349
Atom 6.7285 9.3145 6.2526
Atom 1.3305 6.7235 7.4522
Atom 0.3140 3.1176 4.1571
Atom 8.7462 2.2821 5.6171
Atom 7.7432 8.5978 1.9633
Atom 1.0232 8.5480 6.7617
Atom 1.7481 2.5195 1.6427
Atom 6.8259 0.7910 5.2364
Atom 4.9771 2.7954 0.2387
Atom 3.5034 0.9810 6.7006
Atom 9.2591 2.9660 4.4489
Atom 9.8136 5.4505 0.4366
Atom 6.3243 9.5372 1.2668
Atom 0.3707 2.7771 2.3099
Atom 3.8616 7.3591 2.9533
Atom 7.5336 8.2158 7.7279
Atom 0.0201 2.7315 0.6590
Atom 7.8787 1.9678 5.1638
Atom 2.7494 3.0490 5.9256
Atom 1.9874 0.1895 9.6374
Atom 3.3517 1.8719 3.6514
Atom 8.5973 9.6876 5.1112
Atom 4.5212 1.3630 9.5476
Atom 8.8629 0.7761 7.2150
Atom 7.5740 9.1932 0.4258
Atom 6.1345 9.6773 6.5826
Atom 5.6332 2.7359 6.9818
Atom 1.3222 1.9129 5.3929
Atom 3.0919 3.1405 9.8071
Atom 5.6761 1.1117 8.6009
Atom 8.0639 8.3796 0.9843
Atom 4.1323 1.8191 5.7067
Atom 7.8740 3.6535 9.2925
Atom 9.9270 7.8134 1.5427
Atom 4.0020 2.0143 7.9677
Atom 9.3293 4.7472 3.5185
Atom 4.3777 5.5844 1.5554
Atom 4.1482 3.7335 8.4867
Atom 2.6264 9.0620 0.6668
Atom 1.3716 8.1869 1.6921
Atom 5.1219 5.5833 3.8388
Atom 7.9530 8.1406 1.5310
Atom 8.1375 1.6063 6.8619
Atom 6.0300 4.9675 0.7427
Atom 4.2613 1.2651 1.2292
Atom 6.6129 7.4116 6.1027
Atom 6.5528 4.4972 3.4485
Atom 9.5898 6.5828 3.1331
Atom 6.4701 7.6734 2.9485
Atom 4.6871 6.6257 9.3234
Atom 7.0922 7.9554 2.6210
Atom 9.9024 1.1696 5.9482
Atom 1.0128 7.1903 4.6906
Atom 1.2446 0.1169 3.4713
Atom 9.3025 7.0273 4.1720
Atom 1.2763 0.2127 8.1633
Atom 8.6395 7.5631 6.2350
Atom 0.2390 3.7753 9.2034
Atom 1.1513 1.2357 4.3834
Atom 6.7279 7.2882 0.4688
Atom 9.8487 8.2965 4.4960
100
Step 50
Atom 4.9146 3.2229 5.4681
Atom 8.0135 5.5292 5.2780
Atom 3.7502 4.0874 2.5130
Atom 2.4110 4.7683 3.0077
Atom 0.9823 9.6574 5.0580
Atom 8.6987 8.0914 4.4129
Atom 9.9441 3.7705 5.8391
Atom 6.0132 5.5828 9.0948
Atom 4.2951 0.5854 5.3855
Atom 2.8630 8.0734 0.5182
Atom 3.7476 5.0104 6.3274
Atom 6.0925 0.3640 8.4947
Atom 9.4950 9.2500 3.9135
Atom 5.8560 4.6592 8.0955
Atom 1.5295 5.1959 8.4941
Atom 4.4725 1.8156 9.9677
Atom 6.0918 0.8668 8.1037
Atom 7.6698 1.3245 8.8658
Atom 9.0392 7.9196 1.1645
Atom 4.5752 3.9177 8.8358
Atom 8.3296 9.6889 0.6841
Atom 9.7048 0.4002 0.0780
Atom 2.1473 0.3043 4.8250
Atom 7.4492 4.5260 9.2936
Atom 9.4409 3.1001 9.8755
Atom 7.0837 0.3277 1.7297
Atom 3.4862 4.9771 0.1426
Atom 0.1308 5.6233 3.9174
Atom 1.3649 3.3947 6.1909
Atom 4.9087 6.5665 2.8354
Atom 3.2202 3.0187 9.5352
Atom 3.9150 4.7546 4.7815
Atom 2.8950 8.5950 3.4077
Atom 3.2749 3.0337 3.9851
Atom 6.3041 7.7152 9.9904
Atom 8.1606 0.0215 0.4762
Atom 6.6999 0.7850 2.1831
Atom 1.8350 3.8099 4.7862
Atom 8.8815 9.6240 6.9692
Atom 6.7844 9.3347 6.2556
Atom 1.3311 6.7102 7.4536
Atom 0.3331 3.1160 4.2043
Atom 8.7350 2.2076 5.6296
Atom 7.7728 8.5119 1.9799
Atom 0.9682 8.6201 6.7653
Atom 1.7400 2.5104 1.5780
Atom 6.8844 0.7565 5.2597
Atom 4.9664 2.7282 0.3060
Atom 3.4895 0.9970 6.6750
Atom 9.2800 2.9417 4.3732
Atom 9.7798 5.4298 0.4344
Atom 6.2632 9.5470 1.2978
Atom 0.4311 2.8313 2.3504
Atom 3.8530 7.3077 2.9897
Atom 7.4694 8.2272 7.7444
Atom 0.0344 2.6940 0.7269
Atom 7.9655 2.0354 5.1182
Atom 2.6965 3.1366 5.9820
Atom 1.9347 0.1076 9.6036
Atom 3.3255 1.8632 3.6217
Atom 8.5538 9.6418 5.1100
Atom 4.4531 1.3288 9.5423
Atom 8.9459 0.8422 7.2244
Atom 7.5568 9.2168 0.4533
Atom 6.1360 9.6540 6.4964
Atom 5.5940 2.7829 6.9897
Atom 1.3183 1.9730 5.3729
Atom 3.0387 3.1276 9.7456
Atom 5.7585 1.1038 8.6285
Atom 8.0940 8.3780 1.0680
Atom 4.1734 1.9562 5.7721
Atom 7.8906 3.6674 9.3655
Atom 9.9938 7.7860 1.5281
Atom 4.0070 2.0066 7.9631
Atom 9.3536 4.7406 3.5029
Atom 4.3915 5.5704 1.6104
Atom 4.1054 3.7597 8.4754
Atom 2.6287 9.0678 0.6283
Atom 1.3098 8.1626 1.7698
Atom 5.1283 5.6621 3.8584
Atom 7.9318 8.1223 1.5094
Atom 8.1310 1.5836 6.8106
Atom 5.9974 4.9701 0.6774
Atom 4.2027 1.2941 1.3131
Atom 6.6177 7.4058 6.1140
Atom 6.5810 4.5055 3.4587
Atom 9.5269 6.5956 3.0761
Atom 6.5044 7.6762 2.8998
Atom 4.6607 6.6425 9.3943
Atom 7.0793 7.9759 2.5870
Atom 9.9055 1.1273 5.9339
Atom 0.9974 7.1572 4.6853
Atom 1.2683 0.0790 3.3626
Atom 9.3899 7.0892 4.1251
Atom 1.3006 0.2957 8.1362
Atom 8.6174 7.5514 6.1653
Atom 0.2163 3.7754 9.1651
Atom 1.1236 1.2416 4.3933
Atom 6.7235 7.3050 0.4847
Atom 9.8084 8.3325 4.4778
100
Step 60
Atom 4.9435 3.2319 5.4225
Atom 8.0609 5.5312 5.2894
Atom 3.7560 4.0790 2.5151
Atom 2.4483 4.7588 2.9540
Atom 1.0307 9.6440 5.0550
Atom 8.7031 8.0680 4.4159
Atom 9.9313 3.7704 5.8998
Atom 5.9524 5.6034 9.1103
Atom 4.2722 0.6678 5.4188
Atom 2.9538 8.1194 0.5364
Atom 3.7331 5.0528 6.3192
Atom 6.1209 0.4149 8.5202
Atom 9.4028 9.2235 3.9094
Atom 5.8685 4.6030 8.1013
Atom 1.5206 5.2524 8.4680
Atom 4.4186 1.7877 9.9241
Atom 6.1088 0.7807 8.1658
Atom 7.7375 1.3379 8.8997
Atom 9.0847 7.9554 1.0949
Atom 4.4991 3.9126 8.8141
Atom 8.3240 9.6224 0.7351
Atom 9.7709 0.4195 0.1484
Atom 2.1270 0.3306 4.8473
Atom 7.4694 4.5396 9.2095
Atom 9.5206 3.0936 9.8921
Atom 7.0520 0.2447 1.6815
Atom 3.4751 4.9664 0.1923
Atom 0.1502 5.6258 3.9292
Atom 1.2761 3.2831 6.1778
Atom 4.9344 6.5849 2.8267
Atom 3.2350 2.9559 9.4777
Atom 3.9993 4.7529 4.8453
Atom 2.8215 8.5793 3.3873
Atom 3.2969 2.9969 3.9623
Atom 6.2289 7.7226 0.0269
Atom 8.1109 0.1323 0.4853
Atom 6.7333 0.7071 2.2102
Atom 1.8419 3.8162 4.8043
Atom 8.8629 9.6007 7.0037
Atom 6.8408 9.3554 6.2588
Atom 1.3317 6.6968 7.4548
Atom 0.3524 3.1143 4.2517
Atom 8.7238 2.1327 5.6421
Atom 7.8024 8.4256 1.9967
Atom 0.9129 8.6927 6.7686
Atom 1.7325 2.5014 1.5132
Atom 6.9426 0.7219 5.2854
Atom 4.9557 2.6609 0.3734
Atom 3.4757 1.0136 6.6495
Atom 9.3011 2.9173 4.2973
Atom 9.7458 5.4092 0.4324
Atom 6.2016 9.5569 1.3289
Atom 0.4917 2.8858 2.3912
Atom 3.8444 7.2560 3.0262
Atom 7.4049 8.2387 7.7612
Atom 0.0486 2.6564 0.7950
Atom 8.0528 2.1034 5.0724
Atom 2.6432 3.2246 6.0386
Atom 1.8818 0.0254 9.5696
Atom 3.2989 1.8548 3.5918
Atom 8.5101 9.5959 5.1089
Atom 4.3846 1.2945 9.5369
Atom 9.0293 0.9086 7.2337
Atom 7.5396 9.2406 0.4808
Atom 6.1376 9.6308 6.4098
Atom 5.5546 2.8290 6.9978
Atom 1.3144 2.0334 5.3526
Atom 2.9853 3.1147 9.6837
Atom 5.8413 1.0959 8.6561
Atom 8.1243 8.3764 1.1522
Atom 4.2146 2.0940 5.8380
Atom 7.9070 3.6815 9.4388
Atom 0.0609 7.7585 1.5136
Atom 4.0120 1.9990 7.9584
Atom 9.3781 4.7339 3.4873
Atom 4.4055 5.5564 1.6656
Atom 4.0625 3.7861 8.4639
Atom 2.6310 9.0737 0.5896
Atom 1.2362 8.1398 1.8596
Atom 5.1348 5.7412 3.8782
Atom 7.9107 8.1039 1.4880
Atom 8.1245 1.5607 6.7591
Atom 5.9644 4.9728 0.6117
Atom 4.1437 1.3233 1.3974
Atom 6.6225 7.4001 6.1252
Atom 6.6093 4.5141 3.4689
Atom 9.4633 6.6091 3.0184
Atom 6.5390 7.6789 2.8507
Atom 4.6342 6.6591 9.4655
Atom 7.0664 7.9966 2.5529
Atom 9.9087 1.0847 5.9195
Atom 0.9819 7.1242 4.6800
Atom 1.2920 0.0409 3.2534
Atom 9.4776 7.1516 4.0779
Atom 1.3249 0.3792 8.1089
Atom 8.5953 7.5399 6.0951
Atom 0.1935 3.7754 9.1265
Atom 1.0957 1.2476 4.4032
Atom 6.7205 7.3234 0.5012
Atom 9.7687 8.3699 4.4590
100
Step 70
Atom 4.9724 3.2407 5.3768
Atom 8.1084 5.5333 5.3006
Atom 3.7617 4.0706 2.5172
Atom 2.4857 4.7492 2.9002
Atom 1.0790 9.6305 5.0520
Atom 8.7075 8.0445 4.4188
Atom 9.9185 3.7702 5.9606
Atom 5.8915 5.6240 9.1259
Atom 4.2493 0.7505 5.4522
Atom 3.0449 8.1655 0.5548
Atom 3.7185 5.0950 6.3111
Atom 6.1496 0.4660 8.5459
Atom 9.3103 9.1969 3.9053
Atom 5.8809 4.5466 8.1074
Atom 1.5119 5.3090 8.4419
Atom 4.3646 1.7597 9.8803
Atom 6.1259 0.6944 8.2280
Atom 7.8066 1.3491 8.9358
Atom 9.1302 7.9914 1.0252
Atom 4.4230 3.9074 8.7924
Atom 8.3183 9.5556 0.7862
Atom 9.8371 0.4388 0.2191
Atom 2.1062 0.3572 4.8700
Atom 7.4899 4.5531 9.1254
Atom 9.6005 3.0870 9.9088
Atom 7.0203 0.1614 1.6332
Atom 3.4640 4.9556 0.2421
Atom 0.1699 5.6277 3.9412
Atom 1.1870 3.1712 6.1646
Atom 4.9604 6.6032 2.8178
Atom 3.2498 2.8930 9.4202
Atom 4.0837 4.7511 4.9091
Atom 2.7413 8.5636 3.3667
Atom 3.3188 2.9599 3.9395
Atom 6.1536 7.7300 0.0636
Atom 8.0609 0.2433 0.4944
Atom 6.7671 0.6270 2.2370
Atom 1.8488 3.8225 4.8224
Atom 8.8444 9.5773 7.0382
Atom 6.8977 9.3764 6.2621
Atom 1.3322 6.6834 7.4560
Atom 0.3717 3.1126 4.2992
Atom 8.7126 2.0575 5.6547
Atom 7.8323 8.3391 2.0137
Atom 0.8574 8.7655 6.7718
Atom 1.7255 2.4924 1.4483
Atom 7.0012 0.6867 5.3132
Atom 4.9451 2.5937 0.4407
Atom 3.4618 1.0308 6.6242
Atom 9.3224 2.8929 4.2212
Atom 9.7114 5.3889 0.4306
Atom 6.1399 9.5670 1.3599
Atom 0.5526 2.9404 2.4322
Atom 3.8358 7.2041 3.0625
Atom 7.3402 8.2503 7.7781
Atom 0.0628 2.6187 0.8633
Atom 8.1404 2.1715 5.0265
Atom 2.5899 3.3128 6.0954
Atom 1.8289 9.9430 9.5355
Atom 3.2719 1.8466 3.5620
Atom 8.4664 9.5500 5.1078
Atom 4.3160 1.2601 9.5314
Atom 9.1128 0.9751 7.2430
Atom 7.5223 9.2645 0.5083
Atom 6.1394 9.6077 6.3230
Atom 5.5149 2.8744 7.0061
Atom 1.3106 2.0938 5.3323
Atom 2.9317 3.1018 9.6217
Atom 5.9243 1.0879 8.6838
Atom 8.1547 8.3749 1.2367
Atom 4.2557 2.2323 5.9040
Atom 7.9230 3.6958 9.5124
Atom 0.1281 7.7310 1.4990
Atom 4.0170 1.9913 7.9536
Atom 9.4026 4.7272 3.4718
Atom 4.4195 5.5422 1.7210
Atom 4.0195 3.8124 8.4523
Atom 2.6334 9.0796 0.5508
Atom 1.1477 8.1146 1.9618
Atom 5.1413 5.8205 3.8979
Atom 7.8897 8.0854 1.4668
Atom 8.1178 1.5377 6.7075
Atom 5.9311 4.9752 0.5456
Atom 4.0846 1.3526 1.4817
Atom 6.6275 7.3942 6.1364
Atom 6.6377 4.5228 3.4792
Atom 9.3991 6.6232 2.9603
Atom 6.5740 7.6818 2.8015
Atom 4.6077 6.6757 9.5369
Atom 7.0536 8.0174 2.5186
Atom 9.9120 1.0422 5.9050
Atom 0.9664 7.0913 4.6747
Atom 1.3157 0.0028 3.1441
Atom 9.5655 7.2143 4.0305
Atom 1.3492 0.4629 8.0815
Atom 8.5732 7.5284 6.0247
Atom 0.1708 3.7753 9.0878
Atom 1.0677 1.2538 4.4133
Atom 6.7208 7.3442 0.5187
Atom 9.7297 8.4086 4.4396
100
Step 80
Atom 5.0013 3.2493 5.3310
Atom 8.1560 5.5354 5.3117
Atom 3.7676 4.0621 2.5193
Atom 2.5230 4.7396 2.8464
Atom 1.1273 9.6169 5.0489
Atom 8.7118 8.0210 4.4216
Atom 9.9056 3.7701 6.0214
Atom 5.8304 5.6445 9.1415
Atom 4.2263 0.8333 5.4856
Atom 3.1361 8.2115 0.5732
Atom 3.7039 5.1369 6.3032
Atom 6.1785 0.5172 8.5717
Atom 9.2176 9.1700 3.9009
Atom 5.8933 4.4899 8.1136
Atom 1.5031 5.3656 8.4158
Atom 4.3106 1.7317 9.8364
Atom 6.1431 0.6081 8.2903
Atom 7.8773 1.3581 8.9742
Atom 9.1757 8.0274 0.9555
Atom 4.3468 3.9021 8.7708
Atom 8.3125 9.4885 0.8374
Atom 9.9033 0.4581 0.2897
Atom 2.0848 0.3841 4.8929
Atom 7.5105 4.5665 9.0413
Atom 9.6805 3.0802 9.9256
Atom 6.9885 0.0780 1.5847
Atom 3.4528 4.9448 0.2919
Atom 0.1899 5.6291 3.9534
Atom 1.0979 3.0591 6.1513
Atom 4.9866 6.6214 2.8086
Atom 3.2645 2.8299 9.3626
Atom 4.1683 4.7493 4.9729
Atom 2.6533 8.5480 3.3464
Atom 3.3406 2.9228 3.9167
Atom 6.0784 7.7376 0.1006
Atom 8.0109 0.3544 0.5034
Atom 6.8016 0.5445 2.2636
Atom 1.8556 3.8286 4.8404
Atom 8.8257 9.5540 7.0727
Atom 6.9550 9.3977 6.2656
Atom 1.3327 6.6699 7.4571
Atom 0.3911 3.1108 4.3468
Atom 8.7015 1.9822 5.6672
Atom 7.8622 8.2526 2.0308
Atom 0.8016 8.8384 6.7748
Atom 1.7190 2.4834 1.3834
Atom 7.0609 0.6509 5.3431
Atom 4.9346 2.5267 0.5076
Atom 3.4477 1.0488 6.5992
Atom 9.3437 2.8684 4.1452
Atom 9.6768 5.3688 0.4291
Atom 6.0779 9.5772 1.3908
Atom 0.6137 2.9950 2.4733
Atom 3.8271 7.1521 3.0987
Atom 7.2753 8.2621 7.7952
Atom 0.0770 2.5810 0.9317
Atom 8.2282 2.2397 4.9806
Atom 2.5365 3.4009 6.1523
Atom 1.7758 9.8607 9.5014
Atom 3.2448 1.8387 3.5323
Atom 8.4226 9.5042 5.1067
Atom 4.2473 1.2257 9.5260
Atom 9.1963 1.0416 7.2523
Atom 7.5051 9.2885 0.5357
Atom 6.1414 9.5847 6.2362
Atom 5.4752 2.9184 7.0148
Atom 1.3069 2.1543 5.3120
Atom 2.8780 3.0888 9.5596
Atom 6.0075 1.0799 8.7116
Atom 8.1853 8.3734 1.3215
Atom 4.2967 2.3708 5.9701
Atom 7.9387 3.7102 9.5861
Atom 0.1953 7.7036 1.4846
Atom 4.0221 1.9836 7.9488
Atom 9.4273 4.7205 3.4563
Atom 4.4336 5.5281 1.7763
Atom 3.9765 3.8387 8.4407
Atom 2.6357 9.0856 0.5120
Atom 1.0424 8.0878 2.0782
Atom 5.1478 5.8999 3.9177
Atom 7.8689 8.0669 1.4458
Atom 8.1110 1.5145 6.6558
Atom 5.8978 4.9777 0.4794
Atom 4.0252 1.3821 1.5659
Atom 6.6326 7.3884 6.1476
Atom 6.6661 4.5317 3.4896
Atom 9.3342 6.6381 2.9017
Atom 6.6091 7.6846 2.7521
Atom 4.5811 6.6921 9.6083
Atom 7.0409 8.0381 2.4843
Atom 9.9154 0.9996 5.8903
Atom 0.9508 7.0586 4.6694
Atom 1.3393 9.9646 3.0346
Atom 9.6535 7.2770 3.9829
Atom 1.3736 0.5467 8.0540
Atom 8.5512 7.5171 5.9541
Atom 0.1481 3.7752 9.0490
Atom 1.0396 1.2601 4.4233
Atom 6.7242 7.3664 0.5373
Atom 9.6914 8.4486 4.4195
100
Step 90
Atom 5.0300 3.2579 5.2853
Atom 8.2036 5.5377 5.3227
Atom 3.7734 4.0536 2.5215
Atom 2.5602 4.7299 2.7927
Atom 1.1756 9.6033 5.0458
Atom 8.7160 7.9975 4.4243
Atom 9.8927 3.7699 6.0822
Atom 5.7691 5.6649 9.1572
Atom 4.2034 0.9164 5.5192
Atom 3.2273 8.2576 0.5919
Atom 3.6893 5.1786 6.2954
Atom 6.2077 0.5683 8.5977
Atom 9.1249 9.1430 3.8964
Atom 5.9055 4.4330 8.1199
Atom 1.4945 5.4222 8.3897
Atom 4.2566 1.7037 9.7924
Atom 6.1603 0.5219 8.3526
Atom 7.9495 1.3651 9.0146
Atom 9.2211 8.0635 0.8858
Atom 4.2707 3.8969 8.7491
Atom 8.3066 9.4214 0.8886
Atom 9.9695 0.4773 0.3605
Atom 2.0631 0.4112 4.9161
Atom 7.5314 4.5798 8.9572
Atom 9.7606 3.0734 9.9424
Atom 6.9567 9.9945 1.5362
Atom 3.4417 4.9339 0.3418
Atom 0.2102 5.6299 3.9657
Atom 1.0086 2.9469 6.1380
Atom 5.0133 6.6396 2.7990
Atom 3.2793 2.7668 9.3050
Atom 4.2528 4.7474 5.0366
Atom 2.5571 8.5322 3.3263
Atom 3.3622 2.8855 3.8940
Atom 6.0033 7.7452 0.1378
Atom 7.9608 0.4654 0.5123
Atom 6.8370 0.4595 2.2900
Atom 1.8625 3.8348 4.8584
Atom 8.8070 9.5307 7.1072
Atom 7.0125 9.4192 6.2691
Atom 1.3332 6.6564 7.4581
Atom 0.4105 3.1091 4.3945
Atom 8.6905 1.9068 5.6798
Atom 7.8922 8.1661 2.0481
Atom 0.7457 8.9114 6.7777
Atom 1.7129 2.4744 1.3185
Atom 7.1225 0.6141 5.3749
Atom 4.9242 2.4599 0.5741
Atom 3.4331 1.0678 6.5743
Atom 9.3652 2.8438 4.0692
Atom 9.6420 5.3488 0.4278
Atom 6.0158 9.5875 1.4216
Atom 0.6749 3.0497 2.5145
Atom 3.8184 7.0999 3.1347
Atom 7.2104 8.2740 7.8124
Atom 0.0911 2.5432 1.0000
Atom 8.3160 2.3078 4.9347
Atom 2.4830 3.4890 6.2093
Atom 1.7228 9.7783 9.4672
Atom 3.2174 1.8310 3.5027
Atom 8.3788 9.4585 5.1057
Atom 4.1785 1.1913 9.5204
Atom 9.2799 1.1081 7.2614
Atom 7.4878 9.3126 0.5631
Atom 6.1436 9.5618 6.1494
Atom 5.4352 2.9610 7.0241
Atom 1.3031 2.2147 5.2915
Atom 2.8242 3.0759 9.4976
Atom 6.0907 1.0720 8.7393
Atom 8.2159 8.3720 1.4064
Atom 4.3375 2.5096 6.0362
Atom 7.9542 3.7248 9.6599
Atom 0.2625 7.6762 1.4703
Atom 4.0273 1.9759 7.9440
Atom 9.4519 4.7139 3.4408
Atom 4.4479 5.5139 1.8315
Atom 3.9335 3.8649 8.4290
Atom 2.6381 9.0916 0.4732
Atom 0.9262 8.0636 2.2043
Atom 5.1543 5.9793 3.9374
Atom 7.8482 8.0484 1.4251
Atom 8.1041 1.4913 6.6041
Atom 5.8644 4.9801 0.4132
Atom 3.9658 1.4116 1.6501
Atom 6.6378 7.3826 6.1586
Atom 6.6946 4.5408 3.5002
Atom 9.2686 6.6536 2.8429
Atom 6.6446 7.6876 2.7027
Atom 4.5546 6.7084 9.6798
Atom 7.0282 8.0590 2.4500
Atom 9.9188 0.9570 5.8756
Atom 0.9352 7.0260 4.6640
Atom 1.3629 9.9265 2.9250
Atom 9.7414 7.3398 3.9351
Atom 1.3979 0.6307 8.0265
Atom 8.5293 7.5059 5.8834
Atom 0.1254 3.7750 9.0102
Atom 1.0114 1.2665 4.4335
Atom 6.7302 7.3894 0.5570
Atom 9.6537 8.4897 4.3984
100
Step 100
Atom 5.0584 3.2665 5.2397
Atom 8.2513 5.5400 5.3335
Atom 3.7793 4.0451 2.5237
Atom 2.5974 4.7202 2.7389
Atom 1.2237 9.5898 5.0428
Atom 8.7201 7.9740 4.4269
Atom 9.8798 3.7697 6.1430
Atom 5.7078 5.6852 9.1729
Atom 4.1804 0.9995 5.5527
Atom 3.3187 8.3036 0.6107
Atom 3.6748 5.2197 6.2877
Atom 6.2369 0.6192 8.6237
Atom 9.0321 9.1159 3.8916
Atom 5.9176 4.3759 8.1263
Atom 1.4858 5.4786 8.3637
Atom 4.2027 1.6757 9.7484
Atom 6.1775 0.4357 8.4149
Atom 8.0232 1.3700 9.0570
Atom 9.2664 8.0997 0.8161
Atom 4.1947 3.8917 8.7275
Atom 8.3007 9.3541 0.9397
Atom 0.0356 0.4966 0.4312
Atom 2.0411 0.4384 4.9392
Atom 7.5524 4.5930 8.8732
Atom 9.8407 3.0664 9.9592
Atom 6.9250 9.9109 1.4876
Atom 3.4306 4.9231 0.3917
Atom 0.2307 5.6302 3.9781
Atom 0.9193 2.8346 6.1247
Atom 5.0401 6.6577 2.7891
Atom 3.2941 2.7037 9.2474
Atom 4.3373 4.7453 5.1002
Atom 2.4533 8.5169 3.3065
Atom 3.3836 2.8481 3.8713
Atom 5.9284 7.7530 0.1752
Atom 7.9105 0.5762 0.5211
Atom 6.8734 0.3722 2.3163
Atom 1.8694 3.8409 4.8764
Atom 8.7882 9.5075 7.1417
Atom 7.0701 9.4412 6.2728
Atom 1.3337 6.6428 7.4591
Atom 0.4301 3.1074 4.4422
Atom 8.6796 1.8312 5.6923
Atom 7.9222 8.0797 2.0654
Atom 0.6897 8.9845 6.7804
Atom 1.7075 2.4653 1.2536
Atom 7.1867 0.5759 5.4083
Atom 4.9140 2.3933 0.6402
Atom 3.4179 1.0878 6.5496
Atom 9.3867 2.8192 3.9932
Atom 9.6071 5.3293 0.4269
Atom 5.9536 9.5979 1.4523
Atom 0.7362 3.1044 2.5558
Atom 3.8096 7.0476 3.1705
Atom 7.1455 8.2860 7.8298
Atom 0.1052 2.5055 1.0684
Atom 8.4040 2.3759 4.8888
Atom 2.4297 3.5771 6.2663
Atom 1.6698 9.6959 9.4331
Atom 3.1897 1.8234 3.4733
Atom 8.3351 9.4128 5.1047
Atom 4.1097 1.1569 9.5149
Atom 9.3635 1.1747 7.2705
Atom 7.4705 9.3368 0.5903
Atom 6.1459 9.5390 6.0627
Atom 5.3949 3.0023 7.0340
Atom 1.2995 2.2750 5.2710
Atom 2.7704 3.0629 9.4355
Atom 6.1741 1.0642 8.7672
Atom 8.2465 8.3705 1.4914
Atom 4.3782 2.6486 6.1025
Atom 7.9693 3.7394 9.7337
Atom 0.3296 7.6489 1.4561
Atom 4.0326 1.9681 7.9390
Atom 9.4766 4.7074 3.4254
Atom 4.4622 5.4998 1.8867
Atom 3.8906 3.8909 8.4172
Atom 2.6404 9.0977 0.4345
Atom 0.7987 8.0445 2.3389
Atom 5.1608 6.0588 3.9571
Atom 7.8276 8.0302 1.4045
Atom 8.0973 1.4680 6.5524
Atom 5.8309 4.9824 0.3469
Atom 3.9062 1.4412 1.7342
Atom 6.6431 7.3767 6.1695
Atom 6.7230 4.5501 3.5108
Atom 9.2027 6.6694 2.7842
Atom 6.6803 7.6908 2.6532
Atom 4.5281 6.7247 9.7513
Atom 7.0157 8.0797 2.4157
Atom 9.9222 0.9145 5.8608
Atom 0.9195 6.9936 4.6586
Atom 1.3863 9.8884 2.8155
Atom 9.8292 7.4027 3.8872
Atom 1.4223 0.7147 7.9988
Atom 8.5076 7.4948 5.8125
Atom 0.1027 3.7747 8.9713
Atom 0.9831 1.2729 4.4436
Atom 6.7390 7.4138 0.5780
Atom 9.6168 8.5321 4.3763
100
Step 110
Atom 5.0867 3.2752 5.1941
Atom 8.2991 5.5423 5.3442
Atom 3.7852 4.0365 2.5260
Atom 2.6346 4.7105 2.6852
Atom 1.2717 9.5762 5.0397
Atom 8.7241 7.9505 4.4294
Atom 9.8670 3.7694 6.2038
Atom 5.6464 5.7054 9.1886
Atom 4.1575 1.0827 5.5863
Atom 3.4101 8.3497 0.6297
Atom 3.6603 5.2605 6.2801
Atom 6.2663 0.6701 8.6498
Atom 8.9393 9.0886 3.8867
Atom 5.9296 4.3186 8.1327
Atom 1.4773 5.5350 8.3377
Atom 4.1488 1.6476 9.7042
Atom 6.1947 0.3494 8.4771
Atom 8.0986 1.3729 9.1006
Atom 9.3116 8.1359 0.7464
Atom 4.1188 3.8865 8.7059
Atom 8.2948 9.2867 0.9909
Atom 0.1017 0.5158 0.5019
Atom 2.0187 0.4656 4.9624
Atom 7.5736 4.6061 8.7893
Atom 9.9208 3.0594 9.9760
Atom 6.8931 9.8272 1.4390
Atom 3.4196 4.9122 0.4416
Atom 0.2514 5.6300 3.9906
Atom 0.8300 2.7222 6.1114
Atom 5.0670 6.6756 2.7788
Atom 3.3088 2.6406 9.1898
Atom 4.4216 4.7432 5.1637
Atom 2.3403 8.5021 3.2879
Atom 3.4048 2.8105 3.8488
Atom 5.8536 7.7608 0.2129
Atom 7.8601 0.6868 0.5299
Atom 6.9110 0.2822 2.3423
Atom 1.8763 3.8471 4.8942
Atom 8.7694 9.4844 7.1761
Atom 7.1280 9.4634 6.2767
Atom 1.3342 6.6293 7.4599
Atom 0.4497 3.1056 4.4899
Atom 8.6688 1.7556 5.7049
Atom 7.9523 7.9934 2.0828
Atom 0.6336 9.0577 6.7830
Atom 1.7024 2.4561 1.1887
Atom 7.2542 0.5358 5.4435
Atom 4.9036 2.3270 0.7057