100
Step 0
Atom 7.0063 3.9000 5.4616
Atom 8.2194 9.3955 1.0192
Atom 5.8108 7.3930 3.2477
Atom 9.7515 8.8047 3.9189
Atom 2.3893 6.7183 0.1752
Atom 1.1591 3.7389 3.0465
Atom 6.3303 8.2966 8.3833
Atom 3.3362 3.1704 1.5375
Atom 4.2452 6.2495 6.2602
Atom 4.3519 8.6257 6.7540
Atom 9.8533 6.1577 5.8468
Atom 4.3208 6.8550 2.6753
Atom 2.5932 1.0238 4.9807
Atom 3.8748 2.4622 6.9167
Atom 7.4663 0.3737 5.4877
Atom 1.4575 1.5814 4.3456
Atom 1.5968 3.5023 5.3987
Atom 7.6924 2.8459 3.0846
Atom 6.5841 0.5669 4.0633
Atom 4.3936 8.5944 0.1677
Atom 1.8216 2.7464 8.5285
Atom 8.6698 2.4280 8.0093
Atom 4.7572 4.5223 5.7419
Atom 1.2860 5.3892 2.0196
Atom 7.8775 0.3229 7.0955
Atom 9.7479 0.8229 1.1625
Atom 4.9895 7.2739 5.8105
Atom 8.6460 0.3295 8.7511
Atom 8.4565 2.4529 5.6658
Atom 4.3315 2.8846 1.0285
Atom 4.4757 2.9834 1.9173
Atom 1.7709 1.2638 9.4579
Atom 0.9918 1.6565 1.5892
Atom 6.1940 2.7884 3.8676
Atom 6.4191 3.3493 1.2734
Atom 2.2213 2.8660 1.3444
Atom 2.8758 7.3173 6.3801
Atom 9.5171 5.7071 0.0086
Atom 1.0320 7.4157 9.2941
Atom 6.8693 2.3632 5.2031
Atom 5.2699 6.3971 9.2152
Atom 6.7036 5.0320 1.7045
Atom 0.9624 6.3223 9.3660
Atom 4.0017 6.3500 5.3747
Atom 7.3144 8.3800 7.6517
Atom 9.2335 1.6972 7.5463
Atom 6.8634 3.7258 2.8043
Atom 6.8747 8.4098 4.3099
Atom 9.4289 2.9940 0.5133
Atom 8.7426 7.1039 8.0589
Atom 7.3887 4.6367 8.8087
Atom 8.5026 3.2422 3.4837
Atom 7.4305 4.7811 2.7288
Atom 1.0457 5.3818 3.3305
Atom 8.7605 8.2762 6.9600
Atom 4.0831 1.0409 7.8460
Atom 2.6926 6.3868 3.4600
Atom 8.5338 3.6272 5.4255
Atom 4.6511 0.3086 4.3344
Atom 7.9908 5.7202 4.9572
Atom 8.1743 4.9844 3.0965
Atom 1.1312 2.8739 6.3666
Atom 1.7023 5.0015 0.8371
Atom 6.9969 1.0864 0.5080
Atom 1.5809 1.0440 2.6427
Atom 7.4322 7.5243 4.6238
Atom 9.4397 2.4749 2.6816
Atom 4.2962 2.7769 8.8209
Atom 3.2722 7.5445 3.4394
Atom 2.6698 5.1922 1.4657
Atom 0.7009 6.0901 1.9048
Atom 0.4774 2.5975 3.2466
Atom 9.7535 6.2826 1.5901
Atom 1.4687 3.9534 8.2800
Atom 1.0212 6.7009 1.4816
Atom 2.5105 7.9522 8.3341
Atom 5.8332 9.3417 6.6551
Atom 6.3884 8.2938 6.4018
Atom 4.6906 0.1744 7.5491
Atom 0.8070 7.1485 3.7861
Atom 7.7817 1.4425 4.8817
Atom 3.9429 1.9746 6.0082
Atom 0.4110 6.1016 6.0824
Atom 5.5861 8.1502 7.9433
Atom 5.4935 3.8796 2.7041
Atom 5.2084 3.4626 4.8157
Atom 5.2755 4.5358 0.4643
Atom 2.5137 0.1160 9.4804
Atom 8.8184 4.5748 1.9947
Atom 9.1418 1.1815 4.8869
Atom 2.2078 4.9725 6.4396
Atom 2.2045 7.3751 9.0418
Atom 1.3480 8.0309 4.2434
Atom 2.9737 9.6661 7.0244
Atom 9.1655 8.3920 4.3477
Atom 4.4315 8.1056 8.8036
Atom 4.7869 2.5611 7.9469
Atom 2.2415 9.7389 3.4841
Atom 9.9028 3.0027 8.8783
Atom 0.8574 5.6111 7.7963
100
Step 10
Atom 7.0206 3.9391 5.4833
Atom 8.1640 9.3234 1.0109
Atom 5.7836 7.3658 3.3281
Atom 9.7773 8.8236 3.9319
Atom 2.4026 6.7674 0.2437
Atom 1.2055 3.6927 3.0596
Atom 6.3963 8.2408 8.4075
Atom 3.2440 3.2496 1.6542
Atom 4.3199 6.2669 6.2416
Atom 4.3243 8.6653 6.7480
Atom 9.9006 6.1746 5.7964
Atom 4.2934 6.8613 2.7251
Atom 2.5770 0.9391 5.0007
Atom 3.8562 2.4928 6.9429
Atom 7.4241 0.3474 5.5208
Atom 1.5303 1.5757 4.3277
Atom 1.5742 3.4988 5.4189
Atom 7.6193 2.9225 3.0601
Atom 6.6219 0.5997 3.9870
Atom 4.4765 8.6000 0.1086
Atom 1.9490 2.8702 8.5678
Atom 8.7191 2.5621 7.9941
Atom 4.7541 4.5741 5.6530
Atom 1.3041 5.4281 2.0654
Atom 7.7979 0.3772 7.1183
Atom 9.7827 0.8007 1.1796
Atom 5.0105 7.2703 5.7972
Atom 8.6664 0.3749 8.7334
Atom 8.4703 2.4719 5.6097
Atom 4.3115 2.7608 1.0517
Atom 4.5614 2.9858 1.9191
Atom 1.6806 1.3092 9.3781
Atom 0.9321 1.6578 1.6090
Atom 6.0899 2.7502 3.9298
Atom 6.4795 3.3579 1.2935
Atom 2.1962 2.8704 1.3310
Atom 2.9015 7.3095 6.3371
Atom 9.4900 5.6992 9.9313
Atom 1.0225 7.4110 9.3332
Atom 6.8795 2.3902 5.1774
Atom 5.2088 6.3444 9.2165
Atom 6.6804 5.0803 1.7173
Atom 0.9271 6.2388 9.2354
Atom 4.0644 6.3784 5.4703
Atom 7.3038 8.3934 7.6640
Atom 9.2203 1.6995 7.6441
Atom 6.9100 3.7081 2.8053
Atom 6.8489 8.4192 4.4022
Atom 9.4303 2.9951 0.3802
Atom 8.7728 7.1343 7.9970
Atom 7.4248 4.6882 8.7005
Atom 8.4652 3.3126 3.4827
Atom 7.3977 4.8509 2.7139
Atom 1.0832 5.4413 3.2797
Atom 8.7410 8.2234 6.9426
Atom 3.9732 1.0694 7.8068
Atom 2.6859 6.4064 3.4992
Atom 8.4564 3.6464 5.4743
Atom 4.5641 0.3202 4.3044
Atom 7.9425 5.6935 4.9698
Atom 8.1338 4.8917 3.0451
Atom 1.1142 2.8706 6.3707
Atom 1.6607 4.9542 0.8539
Atom 6.9984 1.1681 0.5374
Atom 1.6465 1.0585 2.5247
Atom 7.4880 7.4624 4.6586
Atom 9.5276 2.4006 2.7112
Atom 4.2287 2.8323 8.8058
Atom 3.2290 7.5645 3.5060
Atom 2.7185 5.0985 1.4226
Atom 0.7009 6.0892 1.8716
Atom 0.5058 2.6194 3.3144
Atom 9.8793 6.3959 1.6035
Atom 1.4608 3.9234 8.2578
Atom 1.0577 6.6682 1.5706
Atom 2.4769 7.9398 8.2710
Atom 5.8397 9.3216 6.6233
Atom 6.3595 8.3017 6.3905
Atom 4.6749 0.1523 7.5728
Atom 0.6900 7.1167 3.8160
Atom 7.7892 1.4151 4.9030
Atom 4.0136 1.9681 6.0540
Atom 0.3179 6.0353 6.0493
Atom 5.6310 8.0805 8.0050
Atom 5.4622 3.9282 2.7493
Atom 5.2134 3.4051 4.7261
Atom 5.3107 4.5612 0.4512
Atom 2.5307 0.1757 9.4977
Atom 8.9546 4.5009 1.9516
Atom 9.1225 1.1141 4.9665
Atom 2.2492 5.0238 6.4916
Atom 2.2142 7.3556 9.0212
Atom 1.3680 7.9323 4.2366
Atom 2.9022 9.6822 7.0709
Atom 9.1461 8.4005 4.3473
Atom 4.3638 8.0128 8.7284
Atom 4.8156 2.5830 7.9839
Atom 2.2408 9.7409 3.5186
Atom 9.9468 2.9351 8.8868
Atom 0.9028 5.5651 7.6991
100
Step 20
Atom 7.0351 3.9780 5.5043
Atom 8.1087 9.2514 1.0024
Atom 5.7561 7.3385 3.4089
Atom 9.8030 8.8427 3.9449
Atom 2.4160 6.8163 0.3123
Atom 1.2518 3.6466 3.0721
Atom 6.4622 8.1853 8.4315
Atom 3.1517 3.3290 1.7711
Atom 4.3946 6.2845 6.2231
Atom 4.2967 8.7049 6.7421
Atom 9.9480 6.1917 5.7458
Atom 4.2659 6.8673 2.7749
Atom 2.5606 0.8547 5.0207
Atom 3.8374 2.5233 6.9688
Atom 7.3820 0.3210 5.5540
Atom 1.6028 1.5700 4.3096
Atom 1.5514 3.4954 5.4392
Atom 7.5464 2.9991 3.0361
Atom 6.6599 0.6328 3.9108
Atom 4.5591 8.6053 0.0490
Atom 2.0766 2.9939 8.6072
Atom 8.7684 2.6962 7.9789
Atom 4.7510 4.6256 5.5641
Atom 1.3220 5.4671 2.1111
Atom 7.7182 0.4316 7.1408
Atom 9.8176 0.7786 1.1966
Atom 5.0316 7.2667 5.7836
Atom 8.6867 0.4202 8.7160
Atom 8.4841 2.4909 5.5533
Atom 4.2914 2.6371 1.0749
Atom 4.6474 2.9884 1.9212
Atom 1.5903 1.3549 9.2984
Atom 0.8725 1.6593 1.6290
Atom 5.9859 2.7123 3.9917
Atom 6.5403 3.3665 1.3139
Atom 2.1706 2.8748 1.3175
Atom 2.9270 7.3016 6.2940
Atom 9.4630 5.6909 9.8536
Atom 1.0128 7.4062 9.3724
Atom 6.8899 2.4172 5.1515
Atom 5.1475 6.2919 9.2177
Atom 6.6572 5.1283 1.7304
Atom 0.8917 6.1552 9.1050
Atom 4.1273 6.4071 5.5659
Atom 7.2931 8.4069 7.6761
Atom 9.2072 1.7019 7.7416
Atom 6.9564 3.6903 2.8067
Atom 6.8229 8.4285 4.4950
Atom 9.4319 2.9964 0.2472
Atom 8.8034 7.1644 7.9351
Atom 7.4611 4.7397 8.5924
Atom 8.4276 3.3829 3.4820
Atom 7.3650 4.9205 2.6992
Atom 1.1205 5.5006 3.2289
Atom 8.7215 8.1705 6.9247
Atom 3.8632 1.0976 7.7676
Atom 2.6790 6.4260 3.5381
Atom 8.3792 3.6655 5.5228
Atom 4.4773 0.3317 4.2748
Atom 7.8942 5.6667 4.9823
Atom 8.0936 4.7988 2.9939
Atom 1.0968 2.8672 6.3749
Atom 1.6190 4.9066 0.8708
Atom 7.0002 1.2499 0.5668
Atom 1.7120 1.0733 2.4068
Atom 7.5440 7.4005 4.6938
Atom 9.6156 2.3262 2.7412
Atom 4.1611 2.8877 8.7908
Atom 3.1858 7.5843 3.5728
Atom 2.7672 5.0048 1.3797
Atom 0.7011 6.0883 1.8385
Atom 0.5340 2.6416 3.3824
Atom 0.0053 6.5092 1.6168
Atom 1.4529 3.8935 8.2358
Atom 1.0943 6.6355 1.6598
Atom 2.4434 7.9276 8.2079
Atom 5.8461 9.3015 6.5912
Atom 6.3305 8.3097 6.3791
Atom 4.6593 0.1300 7.5965
Atom 0.5731 7.0846 3.8459
Atom 7.7968 1.3879 4.9243
Atom 4.0842 1.9617 6.0999
Atom 0.2246 5.9692 6.0160
Atom 5.6758 8.0109 8.0666
Atom 5.4308 3.9769 2.7945
Atom 5.2186 3.3475 4.6363
Atom 5.3458 4.5865 0.4381
Atom 2.5479 0.2351 9.5148
Atom 9.0913 4.4270 1.9087
Atom 9.1030 1.0471 5.0458
Atom 2.2907 5.0751 6.5435
Atom 2.2240 7.3360 9.0006
Atom 1.3880 7.8332 4.2299
Atom 2.8308 9.6983 7.1176
Atom 9.1266 8.4090 4.3471
Atom 4.2960 7.9200 8.6529
Atom 4.8443 2.6050 8.0209
Atom 2.2399 9.7428 3.5532
Atom 9.9909 2.8677 8.8954
Atom 0.9481 5.5193 7.6021
100
Step 30
Atom 7.0498 4.0167 5.5247
Atom 8.0535 9.1793 0.9939
Atom 5.7284 7.3108 3.4899
Atom 9.8287 8.8619 3.9581
Atom 2.4295 6.8652 0.3810
Atom 1.2979 3.6008 3.0842
Atom 6.5281 8.1299 8.4553
Atom 3.0594 3.4084 1.8881
Atom 4.4695 6.3024 6.2047
Atom 4.2692 8.7446 6.7362
Atom 9.9954 6.2090 5.6952
Atom 4.2383 6.8730 2.8248
Atom 2.5442 0.7705 5.0408
Atom 3.8185 2.5538 6.9945
Atom 7.3399 0.2944 5.5873
Atom 1.6750 1.5644 4.2914
Atom 1.5287 3.4920 5.4596
Atom 7.4734 3.0756 3.0125
Atom 6.6981 0.6661 3.8347
Atom 4.6416 8.6103 9.9889
Atom 2.2043 3.1176 8.6467
Atom 8.8177 2.8304 7.9633
Atom 4.7478 4.6770 5.4751
Atom 1.3400 5.5059 2.1565
Atom 7.6384 0.4860 7.1630
Atom 9.8526 0.7567 1.2134
Atom 5.0530 7.2631 5.7699
Atom 8.7068 0.4654 8.6987
Atom 8.4980 2.5099 5.4966
Atom 4.2712 2.5135 1.0982
Atom 4.7335 2.9911 1.9235
Atom 1.5000 1.4009 9.2188
Atom 0.8131 1.6609 1.6491
Atom 5.8822 2.6746 4.0537
Atom 6.6013 3.3753 1.3345
Atom 2.1448 2.8792 1.3038
Atom 2.9523 7.2940 6.2509
Atom 9.4363 5.6825 9.7759
Atom 1.0029 7.4010 9.4117
Atom 6.9003 2.4442 5.1256
Atom 5.0861 6.2396 9.2189
Atom 6.6342 5.1762 1.7436
Atom 0.8564 6.0715 8.9748
Atom 4.1902 6.4361 5.6612
Atom 7.2822 8.4206 7.6881
Atom 9.1944 1.7046 7.8388
Atom 7.0026 3.6721 2.8087
Atom 6.7969 8.4378 4.5880
Atom 9.4336 2.9978 0.1142
Atom 8.8343 7.1941 7.8733
Atom 7.4977 4.7912 8.4846
Atom 8.3897 3.4532 3.4815
Atom 7.3322 4.9900 2.6848
Atom 1.1578 5.5599 3.1780
Atom 8.7018 8.1176 6.9064
Atom 3.7530 1.1255 7.7283
Atom 2.6719 6.4453 3.5770
Atom 8.3021 3.6844 5.5711
Atom 4.3906 0.3433 4.2454
Atom 7.8461 5.6400 4.9947
Atom 8.0533 4.7057 2.9427
Atom 1.0792 2.8636 6.3791
Atom 1.5769 4.8589 0.8877
Atom 7.0021 1.3319 0.5962
Atom 1.7776 1.0883 2.2890
Atom 7.6001 7.3387 4.7292
Atom 9.7034 2.2521 2.7715
Atom 4.0934 2.9431 8.7759
Atom 3.1425 7.6038 3.6399
Atom 2.8159 4.9110 1.3371
Atom 0.7014 6.0872 1.8054
Atom 0.5620 2.6639 3.4502
Atom 0.1315 6.6224 1.6299
Atom 1.4450 3.8635 8.2141
Atom 1.1309 6.6027 1.7489
Atom 2.4101 7.9152 8.1448
Atom 5.8523 9.2815 6.5589
Atom 6.3014 8.3178 6.3678
Atom 4.6438 0.1079 7.6202
Atom 0.4564 7.0524 3.8757
Atom 7.8044 1.3611 4.9454
Atom 4.1548 1.9553 6.1458
Atom 0.1312 5.9031 5.9825
Atom 5.7206 7.9411 8.1279
Atom 5.3994 4.0256 2.8400
Atom 5.2240 3.2899 4.5461
Atom 5.3806 4.6116 0.4250
Atom 2.5652 0.2943 9.5318
Atom 9.2283 4.3530 1.8660
Atom 9.0835 0.9803 5.1250
Atom 2.3321 5.1262 6.5955
Atom 2.2337 7.3162 8.9799
Atom 1.4080 7.7335 4.2233
Atom 2.7598 9.7142 7.1643
Atom 9.1071 8.4176 4.3473
Atom 4.2280 7.8273 8.5771
Atom 4.8728 2.6269 8.0579
Atom 2.2388 9.7446 3.5877
Atom 0.0351 2.8003 8.9041
Atom 0.9935 5.4737 7.5056
100
Step 40
Atom 7.0647 4.0553 5.5445
Atom 7.9984 9.1072 0.9852
Atom 5.7005 7.2830 3.5712
Atom 9.8544 8.8814 3.9713
Atom 2.4430 6.9141 0.4498
Atom 1.3438 3.5553 3.0959
Atom 6.5941 8.0745 8.4787
Atom 2.9670 3.4879 2.0052
Atom 4.5446 6.3208 6.1865
Atom 4.2418 8.7842 6.7302
Atom 0.0428 6.2266 5.6444
Atom 4.2105 6.8785 2.8747
Atom 2.5277 0.6865 5.0610
Atom 3.7993 2.5843 7.0199
Atom 7.2979 0.2677 5.6207
Atom 1.7469 1.5590 4.2732
Atom 1.5058 3.4888 5.4802
Atom 7.4003 3.1521 2.9894
Atom 6.7366 0.6997 3.7588
Atom 4.7237 8.6152 9.9284
Atom 2.3320 3.2414 8.6863
Atom 8.8672 2.9646 7.9472
Atom 4.7445 4.7283 5.3861
Atom 1.3581 5.5446 2.2020
Atom 7.5587 0.5404 7.1848
Atom 9.8876 0.7353 1.2300
Atom 5.0744 7.2595 5.7564
Atom 8.7269 0.5106 8.6816
Atom 8.5119 2.5288 5.4399
Atom 4.2511 2.3901 1.1216
Atom 4.8197 2.9941 1.9260
Atom 1.4095 1.4472 9.1393
Atom 0.7538 1.6628 1.6691
Atom 5.7787 2.6370 4.1157
Atom 6.6625 3.3841 1.3554
Atom 2.1188 2.8837 1.2900
Atom 2.9774 7.2865 6.2076
Atom 9.4099 5.6738 9.6981
Atom 0.9930 7.3955 9.4510
Atom 6.9107 2.4712 5.0996
Atom 5.0245 6.1875 9.2201
Atom 6.6113 5.2238 1.7571
Atom 0.8210 5.9880 8.8447
Atom 4.2531 6.4656 5.7563
Atom 7.2713 8.4345 7.6999
Atom 9.1818 1.7074 7.9358
Atom 7.0486 3.6538 2.8110
Atom 6.7710 8.4471 4.6813
Atom 9.4356 2.9992 9.9814
Atom 8.8655 7.2234 7.8116
Atom 7.5343 4.8428 8.3767
Atom 8.3514 3.5234 3.4813
Atom 7.2994 5.0595 2.6705
Atom 1.1951 5.6189 3.1272
Atom 8.6818 8.0647 6.8877
Atom 3.6428 1.1534 7.6889
Atom 2.6649 6.4644 3.6160
Atom 8.2252 3.7032 5.6192
Atom 4.3041 0.3549 4.2165
Atom 7.7980 5.6131 5.0070
Atom 8.0131 4.6124 2.8918
Atom 1.0615 2.8601 6.3835
Atom 1.5345 4.8109 0.9045
Atom 7.0041 1.4141 0.6256
Atom 1.8434 1.1037 2.1712
Atom 7.6564 7.2769 4.7649
Atom 9.7912 2.1780 2.8020
Atom 4.0255 2.9986 8.7612
Atom 3.0992 7.6230 3.7073
Atom 2.8647 4.8172 1.2949
Atom 0.7019 6.0861 1.7724
Atom 0.5898 2.6864 3.5179
Atom 0.2579 6.7355 1.6429
Atom 1.4370 3.8333 8.1925
Atom 1.1675 6.5698 1.8379
Atom 2.3767 7.9026 8.0818
Atom 5.8584 9.2615 6.5266
Atom 6.2721 8.3259 6.3565
Atom 4.6284 0.0857 7.6439
Atom 0.3398 7.0202 3.9056
Atom 7.8119 1.3346 4.9663
Atom 4.2255 1.9488 6.1915
Atom 0.0377 5.8371 5.9490
Atom 5.7651 7.8713 8.1888
Atom 5.3678 4.0743 2.8854
Atom 5.2298 3.2322 4.4556
Atom 5.4153 4.6366 0.4120
Atom 2.5827 0.3535 9.5487
Atom 9.3657 4.2790 1.8235
Atom 9.0638 0.9136 5.2040
Atom 2.3735 5.1773 6.6474
Atom 2.2436 7.2962 8.9591
Atom 1.4280 7.6335 4.2168
Atom 2.6889 9.7301 7.2110
Atom 9.0874 8.4261 4.3479
Atom 4.1599 7.7347 8.5007
Atom 4.9013 2.6487 8.0950
Atom 2.2374 9.7463 3.6223
Atom 0.0793 2.7329 8.9128
Atom 1.0390 5.4282 7.4093
100
Step 50
Atom 7.0798 4.0938 5.5639
Atom 7.9433 9.0354 0.9763
Atom 5.6724 7.2548 3.6527
Atom 9.8801 8.9010 3.9847
Atom 2.4567 6.9631 0.5183
Atom 1.3897 3.5100 3.1072
Atom 6.6603 8.0191 8.5019
Atom 2.8743 3.5675 2.1224
Atom 4.6198 6.3398 6.1684
Atom 4.2144 8.8236 6.7241
Atom 0.0902 6.2443 5.5937
Atom 4.1825 6.8836 2.9247
Atom 2.5112 0.6026 5.0813
Atom 3.7800 2.6147 7.0451
Atom 7.2560 0.2411 5.6542
Atom 1.8186 1.5536 4.2550
Atom 1.4828 3.4857 5.5011
Atom 7.3274 3.2285 2.9666
Atom 6.7753 0.7337 3.6829
Atom 4.8056 8.6200 9.8676
Atom 2.4597 3.3652 8.7258
Atom 8.9168 3.0986 7.9306
Atom 4.7412 4.7795 5.2968
Atom 1.3762 5.5830 2.2474
Atom 7.4789 0.5946 7.2063
Atom 9.9226 0.7141 1.2463
Atom 5.0959 7.2557 5.7430
Atom 8.7471 0.5560 8.6646
Atom 8.5259 2.5476 5.3833
Atom 4.2312 2.2671 1.1450
Atom 4.9059 2.9973 1.9287
Atom 1.3188 1.4939 9.0599
Atom 0.6945 1.6649 1.6888
Atom 5.6754 2.5993 4.1780
Atom 6.7238 3.3928 1.3765
Atom 2.0924 2.8882 1.2759
Atom 3.0024 7.2791 6.1643
Atom 9.3839 5.6649 9.6205
Atom 0.9830 7.3897 9.4905
Atom 6.9212 2.4983 5.0734
Atom 4.9629 6.1357 9.2212
Atom 6.5885 5.2712 1.7709
Atom 0.7858 5.9046 8.7146
Atom 4.3160 6.4957 5.8511
Atom 7.2602 8.4485 7.7114
Atom 9.1693 1.7104 8.0324
Atom 7.0949 3.6354 2.8137
Atom 6.7451 8.4564 4.7748
Atom 9.4380 3.0004 9.8488
Atom 8.8969 7.2523 7.7499
Atom 7.5709 4.8945 8.2688
Atom 8.3129 3.5936 3.4811
Atom 7.2665 5.1290 2.6564
Atom 1.2323 5.6776 3.0763
Atom 8.6617 8.0118 6.8685
Atom 3.5323 1.1811 7.6495
Atom 2.6579 6.4833 3.6551
Atom 8.1484 3.7219 5.6671
Atom 4.2177 0.3668 4.1879
Atom 7.7498 5.5862 5.0191
Atom 7.9730 4.5189 2.8411
Atom 1.0436 2.8566 6.3880
Atom 1.4917 4.7627 0.9212
Atom 7.0064 1.4964 0.6551
Atom 1.9093 1.1194 2.0533
Atom 7.7129 7.2150 4.8009
Atom 9.8788 2.1041 2.8327
Atom 3.9574 3.0542 8.7465
Atom 3.0559 7.6420 3.7750
Atom 2.9133 4.7234 1.2529
Atom 0.7027 6.0848 1.7394
Atom 0.6175 2.7092 3.5855
Atom 0.3844 6.8484 1.6560
Atom 1.4290 3.8028 8.1710
Atom 1.2041 6.5368 1.9269
Atom 2.3434 7.8897 8.0189
Atom 5.8643 9.2416 6.4941
Atom 6.2425 8.3340 6.3453
Atom 4.6132 0.0631 7.6679
Atom 0.2230 6.9879 3.9356
Atom 7.8193 1.3085 4.9868
Atom 4.2963 1.9423 6.2370
Atom 9.9442 5.7711 5.9156
Atom 5.8096 7.8016 8.2492
Atom 5.3360 4.1232 2.9307
Atom 5.2359 3.1745 4.3648
Atom 5.4498 4.6612 0.3993
Atom 2.6003 0.4127 9.5657
Atom 9.5031 4.2051 1.7812
Atom 9.0440 0.8470 5.2829
Atom 2.4147 5.2283 6.6993
Atom 2.2534 7.2760 8.9381
Atom 1.4480 7.5331 4.2102
Atom 2.6182 9.7458 7.2576
Atom 9.0677 8.4347 4.3488
Atom 4.0917 7.6423 8.4237
Atom 4.9297 2.6704 8.1321
Atom 2.2357 9.7480 3.6569
Atom 0.1235 2.6655 8.9215
Atom 1.0845 5.3828 7.3132
100
Step 60
Atom 7.0948 4.1323 5.5830
Atom 7.8884 8.9638 0.9674
Atom 5.6442 7.2263 3.7345
Atom 9.9060 8.9206 3.9980
Atom 2.4705 7.0120 0.5867
Atom 1.4356 3.4650 3.1182
Atom 6.7263 7.9637 8.5247
Atom 2.7814 3.6471 2.2399
Atom 4.6949 6.3592 6.1505
Atom 4.1872 8.8631 6.7178
Atom 0.1373 6.2621 5.5429
Atom 4.1543 6.8885 2.9749
Atom 2.4947 0.5189 5.1019
Atom 3.7603 2.6451 7.0701
Atom 7.2142 0.2144 5.6878
Atom 1.8903 1.5484 4.2369
Atom 1.4598 3.4829 5.5222
Atom 7.2545 3.3047 2.9441
Atom 6.8140 0.7680 3.6072
Atom 4.8873 8.6247 9.8065
Atom 2.5873 3.4890 8.7655
Atom 8.9668 3.2325 7.9137
Atom 4.7379 4.8307 5.2074
Atom 1.3945 5.6213 2.2929
Atom 7.3990 0.6488 7.2275
Atom 9.9575 0.6931 1.2624
Atom 5.1175 7.2518 5.7297
Atom 8.7673 0.6017 8.6477
Atom 8.5400 2.5664 5.3266
Atom 4.2113 2.1445 1.1682
Atom 4.9923 3.0007 1.9314
Atom 1.2281 1.5407 8.9808
Atom 0.6353 1.6674 1.7083
Atom 5.5723 2.5617 4.2406
Atom 6.7853 3.4015 1.3978
Atom 2.0658 2.8928 1.2617
Atom 3.0273 7.2717 6.1209
Atom 9.3584 5.6557 9.5431
Atom 0.9730 7.3836 9.5303
Atom 6.9318 2.5255 5.0471
Atom 4.9011 6.0842 9.2221
Atom 6.5656 5.3184 1.7848
Atom 0.7506 5.8212 8.5846
Atom 4.3790 6.5260 5.9458
Atom 7.2490 8.4627 7.7227
Atom 9.1570 1.7135 8.1288
Atom 7.1414 3.6168 2.8168
Atom 6.7192 8.4658 4.8685
Atom 9.4408 3.0016 9.7164
Atom 8.9287 7.2806 7.6882
Atom 7.6076 4.9462 8.1607
Atom 8.2742 3.6638 3.4809
Atom 7.2336 5.1984 2.6424
Atom 1.2696 5.7361 3.0254
Atom 8.6414 7.9589 6.8490
Atom 3.4216 1.2087 7.6100
Atom 2.6509 6.5022 3.6944
Atom 8.0716 3.7405 5.7147
Atom 4.1317 0.3789 4.1596
Atom 7.7016 5.5592 5.0310
Atom 7.9328 4.4252 2.7907
Atom 1.0256 2.8531 6.3926
Atom 1.4488 4.7144 0.9375
Atom 7.0088 1.5788 0.6847
Atom 1.9753 1.1356 1.9354
Atom 7.7697 7.1529 4.8370
Atom 9.9662 2.0304 2.8637
Atom 3.8891 3.1098 8.7321
Atom 3.0127 7.6606 3.8429
Atom 2.9617 4.6297 1.2112
Atom 0.7037 6.0834 1.7062
Atom 0.6451 2.7321 3.6529
Atom 0.5109 6.9611 1.6691
Atom 1.4209 3.7721 8.1497
Atom 1.2408 6.5037 2.0158
Atom 2.3100 7.8765 7.9562
Atom 5.8701 9.2216 6.4616
Atom 6.2127 8.3420 6.3340
Atom 4.5981 0.0402 7.6919
Atom 0.1063 6.9555 3.9657
Atom 7.8266 1.2829 5.0072
Atom 4.3671 1.9357 6.2821
Atom 9.8507 5.7050 5.8822
Atom 5.8538 7.7318 8.3092
Atom 5.3042 4.1721 2.9760
Atom 5.2421 3.1166 4.2738
Atom 5.4840 4.6855 0.3869
Atom 2.6179 0.4720 9.5828
Atom 9.6404 4.1313 1.7390
Atom 9.0241 0.7806 5.3617
Atom 2.4559 5.2793 6.7513
Atom 2.2634 7.2557 8.9170
Atom 1.4679 7.4325 4.2036
Atom 2.5476 9.7614 7.3043
Atom 9.0481 8.4433 4.3502
Atom 4.0236 7.5500 8.3462
Atom 4.9579 2.6920 8.1693
Atom 2.2336 9.7496 3.6915
Atom 0.1678 2.5982 8.9303
Atom 1.1301 5.3372 7.2172
100
Step 70
Atom 7.1098 4.1706 5.6017
Atom 7.8335 8.8924 0.9583
Atom 5.6157 7.1975 3.8168
Atom 9.9319 8.9401 4.0114
Atom 2.4845 7.0605 0.6549
Atom 1.4816 3.4202 3.1288
Atom 6.7921 7.9083 8.5472
Atom 2.6882 3.7267 2.3575
Atom 4.7700 6.3791 6.1328
Atom 4.1601 8.9026 6.7116
Atom 0.1841 6.2801 5.4921
Atom 4.1260 6.8931 3.0251
Atom 2.4784 0.4353 5.1227
Atom 3.7404 2.6755 7.0949
Atom 7.1725 0.1876 5.7215
Atom 1.9620 1.5433 4.2188
Atom 1.4366 3.4803 5.5436
Atom 7.1818 3.3807 2.9220
Atom 6.8527 0.8025 3.5317
Atom 4.9687 8.6293 9.7449
Atom 2.7147 3.6129 8.8053
Atom 9.0171 3.3663 7.8965
Atom 4.7348 4.8820 5.1180
Atom 1.4127 5.6597 2.3387
Atom 7.3189 0.7029 7.2486
Atom 9.9924 0.6724 1.2782
Atom 5.1391 7.2478 5.7165
Atom 8.7877 0.6476 8.6308
Atom 8.5542 2.5851 5.2699
Atom 4.1914 2.0221 1.1914
Atom 5.0787 3.0042 1.9341
Atom 1.1375 1.5877 8.9017
Atom 0.5761 1.6702 1.7277
Atom 5.4694 2.5242 4.3034
Atom 6.8468 3.4101 1.4193
Atom 2.0388 2.8974 1.2473
Atom 3.0520 7.2644 6.0774
Atom 9.3333 5.6463 9.4661
Atom 0.9630 7.3772 9.5702
Atom 6.9423 2.5527 5.0208
Atom 4.8392 6.0329 9.2230
Atom 6.5427 5.3656 1.7989
Atom 0.7157 5.7377 8.4545
Atom 4.4421 6.5568 6.0403
Atom 7.2376 8.4771 7.7338
Atom 9.1447 1.7168 8.2248
Atom 7.1882 3.5981 2.8202
Atom 6.6934 8.4753 4.9625
Atom 9.4439 3.0028 9.5842
Atom 8.9608 7.3083 7.6263
Atom 7.6443 4.9981 8.0524
Atom 8.2354 3.7340 3.4807
Atom 7.2007 5.2678 2.6285
Atom 1.3070 5.7943 2.9744
Atom 8.6206 7.9061 6.8291
Atom 3.3106 1.2363 7.5705
Atom 2.6436 6.5210 3.7339
Atom 7.9950 3.7589 5.7622
Atom 4.0458 0.3913 4.1317
Atom 7.6534 5.5321 5.0427
Atom 7.8925 4.3315 2.7407
Atom 1.0074 2.8497 6.3975
Atom 1.4056 4.6662 0.9536
Atom 7.0113 1.6614 0.7145
Atom 2.0415 1.1522 1.8175
Atom 7.8267 7.0907 4.8732
Atom 0.0534 1.9568 2.8947
Atom 3.8206 3.1654 8.7179
Atom 2.9694 7.6790 3.9109
Atom 3.0101 4.5361 1.1697
Atom 0.7048 6.0819 1.6729
Atom 0.6725 2.7553 3.7200
Atom 0.6375 7.0735 1.6823
Atom 1.4127 3.7412 8.1285
Atom 1.2777 6.4704 2.1046
Atom 2.2768 7.8631 7.8935
Atom 5.8760 9.2015 6.4291
Atom 6.1828 8.3498 6.3228
Atom 4.5833 0.0169 7.7162
Atom 9.9897 6.9228 3.9958
Atom 7.8338 1.2578 5.0275
Atom 4.4378 1.9289 6.3270
Atom 9.7572 5.6390 5.8490
Atom 5.8979 7.6622 8.3686
Atom 5.2724 4.2210 3.0212
Atom 5.2486 3.0587 4.1829
Atom 5.5181 4.7096 0.3748
Atom 2.6357 0.5315 9.6000
Atom 9.7779 4.0574 1.6970
Atom 9.0040 0.7143 5.4404
Atom 2.4971 5.3305 6.8035
Atom 2.2735 7.2352 8.8957
Atom 1.4877 7.3318 4.1967
Atom 2.4771 9.7769 7.3509
Atom 9.0286 8.4518 4.3519
Atom 3.9557 7.4578 8.2681
Atom 4.9860 2.7135 8.2065
Atom 2.2314 9.7510 3.7261
Atom 0.2125 2.5310 8.9392
Atom 1.1757 5.2916 7.1214
100
Step 80
Atom 7.1245 4.2089 5.6199
Atom 7.7787 8.8210 0.9490
Atom 5.5871 7.1682 3.8996
Atom 9.9578 8.9596 4.0248
Atom 2.4985 7.1087 0.7231
Atom 1.5276 3.3755 3.1391
Atom 6.8578 7.8530 8.5693
Atom 2.5949 3.8062 2.4753
Atom 4.8450 6.3993 6.1152
Atom 4.1332 8.9422 6.7053
Atom 0.2307 6.2983 5.4413
Atom 4.0974 6.8974 3.0756
Atom 2.4623 0.3517 5.1437
Atom 3.7201 2.7060 7.1196
Atom 7.1308 0.1607 5.7554
Atom 2.0337 1.5383 4.2007
Atom 1.4133 3.4778 5.5653
Atom 7.1094 3.4564 2.9001
Atom 6.8915 0.8373 3.4563
Atom 5.0500 8.6338 9.6831
Atom 2.8417 3.7367 8.8453
Atom 9.0678 3.5002 7.8791
Atom 4.7318 4.9331 5.0284
Atom 1.4308 5.6983 2.3847
Atom 7.2386 0.7570 7.2695
Atom 0.0273 0.6518 1.2937
Atom 5.1607 7.2438 5.7034
Atom 8.8081 0.6936 8.6140
Atom 8.5685 2.6040 5.2129
Atom 4.1713 1.9001 1.2144
Atom 5.1651 3.0079 1.9368
Atom 1.0471 1.6347 8.8226
Atom 0.5169 1.6733 1.7468
Atom 5.3667 2.4869 4.3663
Atom 6.9085 3.4187 1.4411
Atom 2.0114 2.9021 1.2327
Atom 3.0767 7.2570 6.0339
Atom 9.3086 5.6367 9.3891
Atom 0.9530 7.3706 9.6102
Atom 6.9528 2.5799 4.9945
Atom 4.7772 5.9817 9.2238
Atom 6.5198 5.4126 1.8132
Atom 0.6809 5.6541 8.3244
Atom 4.5054 6.5880 6.1346
Atom 7.2260 8.4915 7.7446
Atom 9.1324 1.7201 8.3207
Atom 7.2351 3.5792 2.8239
Atom 6.6677 8.4850 5.0567
Atom 9.4472 3.0041 9.4521
Atom 8.9930 7.3356 7.5643
Atom 7.6811 5.0501 7.9436
Atom 8.1968 3.8039 3.4804
Atom 7.1678 5.3372 2.6149
Atom 1.3446 5.8523 2.9234
Atom 8.5995 7.8532 6.8088
Atom 3.1994 1.2639 7.5308
Atom 2.6363 6.5396 3.7735
Atom 7.9185 3.7773 5.8094
Atom 3.9602 0.4039 4.1040
Atom 7.6052 5.5049 5.0541
Atom 7.8521 4.2377 2.6912
Atom 0.9890 2.8464 6.4025
Atom 1.3623 4.6181 0.9694
Atom 7.0138 1.7442 0.7445
Atom 2.1076 1.1693 1.6998
Atom 7.8837 7.0283 4.9098
Atom 0.1404 1.8836 2.9260
Atom 3.7518 3.2210 8.7038
Atom 2.9262 7.6971 3.9789
Atom 3.0584 4.4426 1.1281
Atom 0.7060 6.0803 1.6398
Atom 0.6996 2.7787 3.7870
Atom 0.7642 7.1857 1.6957
Atom 1.4046 3.7102 8.1073
Atom 1.3147 6.4368 2.1933
Atom 2.2435 7.8492 7.8307
Atom 5.8817 9.1812 6.3967
Atom 6.1531 8.3576 6.3115
Atom 4.5686 9.9934 7.7404
Atom 9.8734 6.8899 4.0255
Atom 7.8409 1.2329 5.0477
Atom 4.5085 1.9219 6.3716
Atom 9.6635 5.5729 5.8159
Atom 5.9417 7.5926 8.4275
Atom 5.2406 4.2701 3.0662
Atom 5.2552 3.0007 4.0921
Atom 5.5519 4.7335 0.3629
Atom 2.6536 0.5912 9.6171
Atom 9.9155 3.9835 1.6553
Atom 8.9840 0.6480 5.5190
Atom 2.5384 5.3818 6.8557
Atom 2.2837 7.2146 8.8742
Atom 1.5074 7.2311 4.1896
Atom 2.4068 9.7924 7.3976
Atom 9.0091 8.4604 4.3540
Atom 3.8879 7.3656 8.1896
Atom 5.0140 2.7351 8.2439
Atom 2.2290 9.7522 3.7608
Atom 0.2575 2.4640 8.9483
Atom 1.2214 5.2459 7.0257
100
Step 90
Atom 7.1389 4.2472 5.6378
Atom 7.7239 8.7497 0.9396
Atom 5.5584 7.1386 3.9828
Atom 9.9838 8.9790 4.0382
Atom 2.5127 7.1565 0.7914
Atom 1.5737 3.3311 3.1490
Atom 6.9233 7.7976 8.5912
Atom 2.5016 3.8855 2.5932
Atom 4.9201 6.4198 6.0976
Atom 4.1063 8.9819 6.6989
Atom 0.2770 6.3166 5.3904
Atom 4.0686 6.9014 3.1262
Atom 2.4463 0.2682 5.1650
Atom 3.6996 2.7365 7.1441
Atom 7.0892 0.1338 5.7894
Atom 2.1053 1.5335 4.1824
Atom 1.3900 3.4756 5.5873
Atom 7.0371 3.5320 2.8785
Atom 6.9303 0.8726 3.3810
Atom 5.1313 8.6382 9.6210
Atom 2.9684 3.8606 8.8853
Atom 9.1188 3.6341 7.8614
Atom 4.7290 4.9843 4.9386
Atom 1.4488 5.7369 2.4309
Atom 7.1580 0.8110 7.2902
Atom 0.0623 0.6315 1.3091
Atom 5.1823 7.2398 5.6904
Atom 8.8285 0.7397 8.5972
Atom 8.5831 2.6229 5.1558
Atom 4.1512 1.7784 1.2374
Atom 5.2514 3.0118 1.9395
Atom 0.9571 1.6820 8.7434
Atom 0.4578 1.6767 1.7658
Atom 5.2643 2.4498 4.4292
Atom 6.9702 3.4272 1.4629
Atom 1.9838 2.9068 1.2179
Atom 3.1013 7.2497 5.9905
Atom 9.2842 5.6268 9.3121
Atom 0.9430 7.3638 9.6503
Atom 6.9633 2.6069 4.9684
Atom 4.7148 5.9307 9.2245
Atom 6.4967 5.4596 1.8277
Atom 0.6459 5.5704 8.1941
Atom 4.5688 6.6193 6.2288
Atom 7.2143 8.5062 7.7550
Atom 9.1203 1.7235 8.4163
Atom 7.2821 3.5601 2.8278
Atom 6.6420 8.4946 5.1514
Atom 9.4506 3.0055 9.3202
Atom 9.0255 7.3623 7.5020
Atom 7.7180 5.1023 7.8345
Atom 8.1584 3.8737 3.4800
Atom 7.1348 5.4066 2.6014
Atom 1.3823 5.9102 2.8725
Atom 8.5782 7.8002 6.7879
Atom 3.0878 1.2914 7.4910
Atom 2.6288 6.5582 3.8132
Atom 7.8420 3.7957 5.8564
Atom 3.8750 0.4167 4.0765
Atom 7.5568 5.4778 5.0654
Atom 7.8115 4.1437 2.6421
Atom 0.9704 2.8430 6.4077
Atom 1.3189 4.5699 0.9851
Atom 7.0163 1.8274 0.7749
Atom 2.1738 1.1867 1.5825
Atom 7.9405 6.9658 4.9466
Atom 0.2272 1.8105 2.9574
Atom 3.6828 3.2767 8.6900
Atom 2.8829 7.7149 4.0470
Atom 3.1069 4.3491 1.0867
Atom 0.7073 6.0785 1.6069
Atom 0.7265 2.8023 3.8538
Atom 0.8910 7.2977 1.7095
Atom 1.3966 3.6792 8.0861
Atom 1.3518 6.4031 2.2820
Atom 2.2103 7.8350 7.7678
Atom 5.8875 9.1606 6.3645
Atom 6.1236 8.3653 6.3002
Atom 4.5541 9.9698 7.7645
Atom 9.7573 6.8567 4.0550
Atom 7.8479 1.2083 5.0678
Atom 4.5793 1.9149 6.4159
Atom 9.5697 5.5067 5.7830
Atom 5.9855 7.5232 8.4858
Atom 5.2088 4.3193 3.1112
Atom 5.2620 2.9426 4.0015
Atom 5.5855 4.7573 0.3512
Atom 2.6716 0.6511 9.6343
Atom 0.0531 3.9097 1.6137
Atom 8.9638 0.5819 5.5975
Atom 2.5798 5.4331 6.9080
Atom 2.2940 7.1937 8.8525
Atom 1.5271 7.1304 4.1823
Atom 2.3364 9.8078 7.4443
Atom 8.9897 8.4687 4.3565
Atom 3.8201 7.2735 8.1109
Atom 5.0420 2.7566 8.2813
Atom 2.2265 9.7533 3.7954
Atom 0.3029 2.3972 8.9574
Atom 1.2672 5.2003 6.9302
