100
Step 0
Atom 2.0496 4.4686 1.4459
Atom 3.0820 2.0643 1.2480
Atom 6.9098 5.5673 8.2884
Atom 9.3550 7.0619 7.0730
Atom 0.3027 0.2311 6.4575
Atom 3.2998 0.5985 6.6228
Atom 9.6233 6.0801 1.2222
Atom 3.2816 7.9905 2.5284
Atom 8.6612 6.0537 1.2013
Atom 8.0922 4.8611 0.6114
Atom 8.1954 0.6388 5.5734
Atom 0.0354 7.8378 5.0019
Atom 8.7786 1.2314 4.8555
Atom 4.5514 8.0614 3.0847
Atom 1.3048 3.5853 6.5571
Atom 9.8808 7.4193 2.3693
Atom 4.6171 3.9666 0.4366
Atom 7.3528 7.5562 9.4844
Atom 0.9119 6.1032 7.6158
Atom 6.0651 9.6957 0.5731
Atom 9.1483 1.4972 2.4188
Atom 0.4984 9.8216 1.4129
Atom 9.3789 3.6033 0.0903
Atom 1.4500 5.1356 8.6747
Atom 5.6815 1.4838 5.4584
Atom 3.3281 9.2599 9.8535
Atom 9.5050 4.3538 1.5725
Atom 5.6735 5.4565 4.4500
Atom 8.5753 9.0475 2.9133
Atom 2.1872 6.9369 5.8927
Atom 2.6636 8.6072 5.9157
Atom 1.4433 6.1554 5.6933
Atom 7.7110 8.7190 0.8421
Atom 8.7875 3.8813 1.7851
Atom 6.9215 0.5221 7.8612
Atom 3.2364 9.1163 0.2834
Atom 9.6511 0.4310 0.3529
Atom 8.7449 9.1167 4.7369
Atom 2.6680 4.3424 7.0247
Atom 5.3299 5.1256 9.2326
Atom 0.2536 2.2316 9.8237
Atom 9.1979 5.8760 4.4759
Atom 4.1583 3.5289 6.5279
Atom 2.5800 8.0155 4.0987
Atom 5.7188 0.7175 9.6329
Atom 4.3232 5.3458 2.0877
Atom 2.2433 5.4330 5.3429
Atom 8.7393 8.5278 9.5645
Atom 9.1643 4.7106 5.0066
Atom 6.7493 5.0488 7.2517
Atom 0.7691 0.6726 8.6574
Atom 9.9225 8.9730 5.9160
Atom 6.9980 6.8028 9.5676
Atom 4.1832 7.0971 7.5536
Atom 1.4023 0.3936 5.7471
Atom 1.7884 2.7931 3.8286
Atom 5.4463 3.6394 7.7229
Atom 3.8137 8.0792 6.8957
Atom 7.8476 5.7347 5.0668
Atom 1.6574 7.1714 7.3555
Atom 6.6791 1.2466 3.2217
Atom 8.0702 4.1712 8.0819
Atom 4.8261 8.9560 7.3280
Atom 4.4162 1.9755 4.9733
Atom 3.9752 2.3730 6.3395
Atom 7.4026 8.7711 1.6793
Atom 3.8328 5.9419 3.9038
Atom 4.6398 7.4859 1.4050
Atom 4.2990 9.6825 9.8523
Atom 3.4614 1.4462 8.6053
Atom 7.8579 2.9777 5.8674
Atom 3.0050 3.0871 4.1794
Atom 1.1288 3.6242 2.6037
Atom 5.8162 1.7508 2.8104
Atom 6.2927 3.9434 1.6811
Atom 4.1361 5.6086 9.9428
Atom 4.5500 1.7217 1.1425
Atom 4.3271 3.7539 9.8345
Atom 7.0064 7.3118 8.5055
Atom 6.6847 8.5122 3.5013
Atom 9.0838 9.2209 0.3789
Atom 5.2100 0.3519 7.6155
Atom 3.1240 0.1259 9.6260
Atom 5.3813 6.8101 2.6946
Atom 3.6343 5.0544 8.8036
Atom 6.0679 2.1707 3.5734
Atom 4.9152 1.6846 6.6593
Atom 8.1799 4.3650 7.1062
Atom 2.3924 0.2790 1.5876
Atom 6.5098 4.0513 4.8943
Atom 1.9932 3.7778 0.8153
Atom 2.2822 3.4203 9.2484
Atom 9.5309 0.3091 8.1805
Atom 3.8926 5.2476 4.3227
Atom 4.4776 8.6248 6.3873
Atom 0.0204 4.2004 7.5482
Atom 0.9169 3.6565 5.3720
Atom 4.8162 4.8956 4.5844
Atom 0.0587 8.6804 9.4873
Atom 6.4469 6.0117 4.9830
100
Step 10
Atom 2.0604 4.4972 1.3829
Atom 3.0886 2.0492 1.2350
Atom 6.9096 5.5105 8.4140
Atom 9.3854 7.1129 7.1891
Atom 0.3003 0.1586 6.4251
Atom 3.3447 0.6406 6.5391
Atom 9.6637 6.0781 1.2430
Atom 3.2937 8.0635 2.5814
Atom 8.6845 6.0782 1.2017
Atom 8.1953 4.8686 0.6092
Atom 8.2576 0.6052 5.5446
Atom 0.0081 7.8858 5.1075
Atom 8.8586 1.1994 4.8958
Atom 4.5350 8.0547 3.0151
Atom 1.3220 3.5683 6.5326
Atom 9.9043 7.3882 2.3239
Atom 4.6063 3.9267 0.4294
Atom 7.2618 7.5080 9.4751
Atom 0.9948 6.1743 7.6371
Atom 6.0348 9.6815 0.5546
Atom 9.1510 1.4471 2.4574
Atom 0.4783 9.8236 1.5184
Atom 9.4088 3.5068 0.1392
Atom 1.4805 5.1251 8.6500
Atom 5.7607 1.4621 5.5597
Atom 3.3515 9.2871 9.8532
Atom 9.4861 4.3275 1.5605
Atom 5.6454 5.4403 4.4266
Atom 8.6398 9.0261 2.8095
Atom 2.2873 6.8622 5.9165
Atom 2.6877 8.5060 5.9253
Atom 1.5050 6.0612 5.6971
Atom 7.6250 8.7411 0.8533
Atom 8.7971 3.9828 1.7707
Atom 7.0131 0.4448 7.8717
Atom 3.2072 9.2280 0.3490
Atom 9.5991 0.5383 0.3186
Atom 8.7514 9.1636 4.6975
Atom 2.6358 4.3432 6.9839
Atom 5.3968 5.1486 9.2565
Atom 0.2017 2.2212 9.8900
Atom 9.1728 5.9175 4.5311
Atom 4.0791 3.5449 6.5620
Atom 2.5499 8.1163 4.1609
Atom 5.6716 0.7161 9.6545
Atom 4.3352 5.3908 2.1002
Atom 2.2607 5.4632 5.3777
Atom 8.6837 8.5097 9.5390
Atom 9.0875 4.6501 5.1051
Atom 6.5886 5.0282 7.2354
Atom 0.8700 0.7535 8.6777
Atom 9.9395 9.1081 5.9114
Atom 6.8962 6.8354 9.4879
Atom 4.1648 7.0021 7.4205
Atom 1.4490 0.4248 5.7263
Atom 1.6522 2.7599 3.9175
Atom 5.4994 3.6797 7.7853
Atom 3.7850 8.1460 6.9971
Atom 7.9886 5.7688 4.9204
Atom 1.6057 7.1190 7.3353
Atom 6.7178 1.2910 3.2046
Atom 8.0945 4.2068 8.0824
Atom 4.8368 8.9580 7.2662
Atom 4.3069 1.9847 4.9590
Atom 4.0190 2.4393 6.2565
Atom 7.4022 8.7187 1.7339
Atom 3.8584 5.9561 3.8486
Atom 4.5955 7.3731 1.4035
Atom 4.3211 9.6842 9.9130
Atom 3.5343 1.4543 8.5675
Atom 7.8788 2.9212 5.8184
Atom 3.0570 3.0690 4.2382
Atom 1.0988 3.6850 2.5894
Atom 5.8381 1.7603 2.7644
Atom 6.2430 4.0121 1.7087
Atom 4.0689 5.6860 9.9865
Atom 4.5237 1.6767 1.1543
Atom 4.3609 3.8187 9.7446
Atom 7.1149 7.3443 8.4843
Atom 6.7387 8.4622 3.4731
Atom 9.1202 9.2535 0.3084
Atom 5.1810 0.3944 7.4926
Atom 3.0357 0.1177 9.5742
Atom 5.3216 6.8387 2.7955
Atom 3.6324 5.0124 8.7456
Atom 6.1100 2.1246 3.5746
Atom 4.9023 1.6717 6.5772
Atom 8.2267 4.3540 7.0733
Atom 2.4232 0.3042 1.5301
Atom 6.5211 3.8915 4.9142
Atom 2.0264 3.7249 0.7566
Atom 2.0966 3.3699 9.3337
Atom 9.3758 0.2852 8.1642
Atom 3.8862 5.2501 4.4654
Atom 4.5052 8.6227 6.4432
Atom 9.9472 4.1863 7.6069
Atom 0.9455 3.7392 5.3664
Atom 4.7790 4.8637 4.5107
Atom 9.9593 8.6082 9.4845
Atom 6.5291 5.9727 4.9659
100
Step 20
Atom 2.0726 4.5288 1.3131
Atom 3.0959 2.0326 1.2200
Atom 6.9093 5.4475 8.5531
Atom 9.4188 7.1691 7.3176
Atom 0.2976 0.0781 6.3890
Atom 3.3944 0.6870 6.4467
Atom 9.7084 6.0759 1.2659
Atom 3.3071 8.1443 2.6398
Atom 8.7099 6.1057 1.2018
Atom 8.3090 4.8772 0.6063
Atom 8.3261 0.5681 5.5128
Atom 9.9784 7.9390 5.2244
Atom 8.9471 1.1639 4.9402
Atom 4.5170 8.0472 2.9381
Atom 1.3413 3.5497 6.5056
Atom 9.9300 7.3541 2.2737
Atom 4.5940 3.8823 0.4214
Atom 7.1614 7.4548 9.4652
Atom 1.0867 6.2526 7.6603
Atom 6.0011 9.6656 0.5341
Atom 9.1538 1.3919 2.5000
Atom 0.4561 9.8256 1.6349
Atom 9.4422 3.4002 0.1931
Atom 1.5143 5.1132 8.6228
Atom 5.8487 1.4384 5.6716
Atom 3.3776 9.3174 9.8526
Atom 9.4655 4.2984 1.5471
Atom 5.6141 5.4222 4.4006
Atom 8.7112 9.0027 2.6946
Atom 2.3981 6.7795 5.9428
Atom 2.7143 8.3937 5.9361
Atom 1.5731 5.9571 5.7012
Atom 7.5301 8.7655 0.8657
Atom 8.8075 4.0949 1.7549
Atom 7.1143 0.3592 7.8830
Atom 3.1750 9.3515 0.4218
Atom 9.5415 0.6569 0.2808
Atom 8.7588 9.2154 4.6540
Atom 2.6001 4.3444 6.9389
Atom 5.4709 5.1742 9.2830
Atom 0.1444 2.2099 9.9635
Atom 9.1451 5.9634 4.5923
Atom 3.9913 3.5629 6.5995
Atom 2.5165 8.2275 4.2299
Atom 5.6189 0.7145 9.6784
Atom 4.3482 5.4405 2.1143
Atom 2.2799 5.4967 5.4165
Atom 8.6221 8.4897 9.5110
Atom 9.0026 4.5833 5.2143
Atom 6.4109 5.0056 7.2172
Atom 0.9817 0.8428 8.7004
Atom 9.9584 9.2575 5.9065
Atom 6.7837 6.8713 9.4001
Atom 4.1443 6.8967 7.2733
Atom 1.5006 0.4594 5.7033
Atom 1.5016 2.7232 4.0159
Atom 5.5583 3.7243 7.8543
Atom 3.7532 8.2202 7.1094
Atom 8.1445 5.8065 4.7588
Atom 1.5487 7.0610 7.3127
Atom 6.7609 1.3400 3.1860
Atom 8.1213 4.2462 8.0831
Atom 4.8486 8.9604 7.1982
Atom 4.1862 1.9951 4.9431
Atom 4.0673 2.5125 6.1650
Atom 7.4018 8.6604 1.7938
Atom 3.8865 5.9721 3.7877
Atom 4.5467 7.2486 1.4016
Atom 4.3455 9.6860 9.9800
Atom 3.6149 1.4635 8.5259
Atom 7.9017 2.8590 5.7644
Atom 3.1147 3.0492 4.3035
Atom 1.0657 3.7522 2.5737
Atom 5.8622 1.7709 2.7137
Atom 6.1879 4.0878 1.7393
Atom 3.9946 5.7715 0.0349
Atom 4.4945 1.6268 1.1671
Atom 4.3980 3.8901 9.6456
Atom 7.2349 7.3801 8.4607
Atom 6.7984 8.4069 3.4417
Atom 9.1603 9.2894 0.2306
Atom 5.1485 0.4414 7.3569
Atom 2.9383 0.1088 9.5170
Atom 5.2556 6.8701 2.9073
Atom 3.6304 4.9657 8.6812
Atom 6.1565 2.0738 3.5760
Atom 4.8881 1.6574 6.4865
Atom 8.2784 4.3421 7.0366
Atom 2.4576 0.3320 1.4664
Atom 6.5334 3.7147 4.9365
Atom 2.0632 3.6666 0.6912
Atom 1.8916 3.3140 9.4280
Atom 9.2043 0.2588 8.1460
Atom 3.8790 5.2528 4.6234
Atom 4.5357 8.6204 6.5049
Atom 9.8664 4.1708 7.6718
Atom 0.9772 3.8308 5.3602
Atom 4.7377 4.8281 4.4294
Atom 9.8491 8.5282 9.4814
Atom 6.6198 5.9296 4.9467
100
Step 30
Atom 2.0856 4.5620 1.2394
Atom 3.1035 2.0154 1.2037
Atom 6.9091 5.3812 8.6996
Atom 9.4538 7.2283 7.4528
Atom 0.2950 9.9933 6.3512
Atom 3.4467 0.7358 6.3495
Atom 9.7555 6.0736 1.2897
Atom 3.3212 8.2292 2.7009
Atom 8.7364 6.1350 1.2015
Atom 8.4282 4.8863 0.6028
Atom 8.3979 0.5292 5.4794
Atom 9.9476 7.9947 5.3474
Atom 9.0402 1.1266 4.9870
Atom 4.4981 8.0391 2.8571
Atom 1.3618 3.5305 6.4771
Atom 9.9570 7.3185 2.2209
Atom 4.5805 3.8354 0.4129
Atom 7.0559 7.3990 9.4551
Atom 1.1837 6.3346 7.6845
Atom 5.9654 9.6488 0.5124
Atom 9.1566 1.3341 2.5448
Atom 0.4328 9.8275 1.7572
Atom 9.4778 3.2882 0.2496
Atom 1.5499 5.1005 8.5943
Atom 5.9414 1.4135 5.7893
Atom 3.4055 9.3495 9.8518
Atom 9.4442 4.2676 1.5328
Atom 5.5813 5.4031 4.3733
Atom 8.7864 8.9780 2.5735
Atom 2.5148 6.6923 5.9703
Atom 2.7422 8.2755 5.9476
Atom 1.6448 5.8476 5.7054
Atom 7.4304 8.7909 0.8786
Atom 8.8185 4.2126 1.7383
Atom 7.2207 0.2690 7.8948
Atom 3.1415 9.4816 0.4985
Atom 9.4809 0.7816 0.2411
Atom 8.7665 9.2700 4.6082
Atom 2.5625 4.3459 6.8916
Atom 5.5489 5.2012 9.3110
Atom 0.0843 2.1982 0.0412
Atom 9.1160 6.0116 4.6567
Atom 3.8989 3.5822 6.6387
Atom 2.4813 8.3442 4.3029
Atom 5.5631 0.7125 9.7035
Atom 4.3618 5.4927 2.1292
Atom 2.3003 5.5320 5.4575
Atom 8.5573 8.4686 9.4818
Atom 8.9133 4.5131 5.3294
Atom 6.2238 4.9818 7.1978
Atom 1.0994 0.9367 8.7242
Atom 9.9784 9.4144 5.9017
Atom 6.6654 6.9091 9.3079
Atom 4.1224 6.7856 7.1185
Atom 1.5548 0.4958 5.6791
Atom 1.3433 2.6846 4.1197
Atom 5.6202 3.7710 7.9266
Atom 3.7196 8.2985 7.2275
Atom 8.3084 5.8459 4.5890
Atom 1.4890 7.0000 7.2886
Atom 6.8063 1.3914 3.1666
Atom 8.1493 4.2877 8.0841
Atom 4.8609 8.9633 7.1268
Atom 4.0594 2.0062 4.9263
Atom 4.1183 2.5897 6.0690
Atom 7.4016 8.5989 1.8564
Atom 3.9158 5.9892 3.7237
Atom 4.4954 7.1179 1.3994
Atom 4.3712 9.6878 0.0504
Atom 3.6995 1.4733 8.4824
Atom 7.9255 2.7936 5.7076
Atom 3.1752 3.0288 4.3724
Atom 1.0310 3.8229 2.5572
Atom 5.8874 1.7823 2.6603
Atom 6.1302 4.1672 1.7715
Atom 3.9162 5.8613 0.0856
Atom 4.4637 1.5741 1.1802
Atom 4.4366 3.9649 9.5416
Atom 7.3611 7.4178 8.4361
Atom 6.8613 8.3487 3.4086
Atom 9.2023 9.3270 0.1489
Atom 5.1141 0.4909 7.2143
Atom 2.8361 0.0998 9.4569
Atom 5.1862 6.9028 3.0251
Atom 3.6280 4.9165 8.6134
Atom 6.2054 2.0205 3.5774
Atom 4.8734 1.6423 6.3911
Atom 8.3327 4.3297 6.9978
Atom 2.4939 0.3612 1.3993
Atom 6.5463 3.5287 4.9602
Atom 2.1020 3.6053 0.6221
Atom 1.6763 3.2550 9.5270
Atom 9.0239 0.2310 8.1266
Atom 3.8714 5.2558 4.7899
Atom 4.5677 8.6181 6.5698
Atom 9.7817 4.1545 7.7399
Atom 1.0105 3.9272 5.3537
Atom 4.6941 4.7907 4.3440
Atom 9.7331 8.4439 9.4782
Atom 6.7153 5.8844 4.9264
100
Step 40
Atom 2.0992 4.5961 1.1637
Atom 3.1113 1.9975 1.1864
Atom 6.9089 5.3132 8.8500
Atom 9.4897 7.2891 7.5915
Atom 0.2925 9.9063 6.3127
Atom 3.5003 0.7857 6.2499
Atom 9.8038 6.0711 1.3141
Atom 3.3357 8.3163 2.7634
Atom 8.7632 6.1654 1.2010
Atom 8.5502 4.8958 0.5989
Atom 8.4713 0.4892 5.4453
Atom 9.9165 8.0517 5.4736
Atom 9.1357 1.0885 5.0348
Atom 4.4786 8.0308 2.7739
Atom 1.3831 3.5109 6.4479
Atom 9.9844 7.2822 2.1666
Atom 4.5666 3.7873 0.4041
Atom 6.9478 7.3418 9.4450
Atom 1.2833 6.4184 7.7090
Atom 5.9285 9.6314 0.4901
Atom 9.1596 1.2749 2.5905
Atom 0.4088 9.8292 1.8823
Atom 9.5145 3.1736 0.3074
Atom 1.5866 5.0873 8.5651
Atom 6.0365 1.3878 5.9101
Atom 3.4345 9.3828 9.8509
Atom 9.4227 4.2358 1.5181
Atom 5.5476 5.3835 4.3451
Atom 8.8635 8.9528 2.4492
Atom 2.6344 6.6026 5.9985
Atom 2.7706 8.1544 5.9594
Atom 1.7182 5.7356 5.7097
Atom 7.3282 8.8168 0.8917
Atom 8.8296 4.3332 1.7213
Atom 7.3296 0.1763 7.9069
Atom 3.1074 9.6152 0.5773
Atom 9.4186 0.9092 0.2004
Atom 8.7745 9.3259 4.5612
Atom 2.5240 4.3479 6.8430
Atom 5.6292 5.2292 9.3399
Atom 0.0228 2.1864 0.1211
Atom 9.0865 6.0610 4.7228
Atom 3.8039 3.6021 6.6788
Atom 2.4452 8.4637 4.3779
Atom 5.5056 0.7103 9.7292
Atom 4.3757 5.5463 2.1447
Atom 2.3213 5.5683 5.4999
Atom 8.4908 8.4470 9.4520
Atom 8.8217 4.4410 5.4477
Atom 6.0316 4.9575 7.1776
Atom 1.2204 1.0329 8.7487
Atom 9.9989 9.5752 5.8971
Atom 6.5442 6.9478 9.2136
Atom 4.0998 6.6711 6.9597
Atom 1.6104 0.5332 5.6542
Atom 1.1810 2.6450 4.2264
Atom 5.6836 3.8186 8.0005
Atom 3.6850 8.3792 7.3488
Atom 8.4763 5.8862 4.4149
Atom 1.4280 6.9374 7.2638
Atom 6.8530 1.4440 3.1471
Atom 8.1781 4.3304 8.0852
Atom 4.8734 8.9664 7.0537
Atom 3.9295 2.0178 4.9090
Atom 4.1708 2.6690 5.9708
Atom 7.4016 8.5357 1.9202
Atom 3.9457 6.0070 3.6580
Atom 4.4429 6.9840 1.3971
Atom 4.3976 9.6896 0.1226
Atom 3.7862 1.4834 8.4380
Atom 7.9498 2.7267 5.6495
Atom 3.2371 3.0080 4.4432
Atom 0.9953 3.8953 2.5403
Atom 5.9133 1.7942 2.6057
Atom 6.0710 4.2487 1.8046
Atom 3.8357 5.9533 0.1376
Atom 4.4321 1.5198 1.1934
Atom 4.4759 4.0414 9.4351
Atom 7.4905 7.4566 8.4110
Atom 6.9258 8.2890 3.3746
Atom 9.2453 9.3655 0.0652
Atom 5.0785 0.5416 7.0681
Atom 2.7315 0.0908 9.3952
Atom 5.1152 6.9361 3.1461
Atom 3.6253 4.8659 8.5438
Atom 6.2554 1.9660 3.5791
Atom 4.8583 1.6269 6.2933
Atom 8.3884 4.3173 6.9579
Atom 2.5310 0.3911 1.3306
Atom 6.5595 3.3380 4.9848
Atom 2.1417 3.5425 0.5508
Atom 1.4558 3.1945 9.6284
Atom 8.8391 0.2025 8.1063
Atom 3.8637 5.2588 4.9609
Atom 4.6003 8.6156 6.6363
Atom 9.6950 4.1379 7.8096
Atom 1.0448 4.0261 5.3471
Atom 4.6491 4.7522 4.2567
Atom 9.6139 8.3575 9.4751
Atom 6.8130 5.8379 4.9055
100
Step 50
Atom 2.1130 4.6306 1.0868
Atom 3.1190 1.9794 1.1685
Atom 6.9088 5.2442 9.0022
Atom 9.5260 7.3506 7.7320
Atom 0.2901 9.8180 6.2739
Atom 3.5547 0.8361 6.1491
Atom 9.8529 6.0686 1.3387
Atom 3.3504 8.4046 2.8264
Atom 8.7901 6.1965 1.2002
Atom 8.6737 4.9054 0.5947
Atom 8.5454 0.4488 5.4109
Atom 9.8853 8.1092 5.6016
Atom 9.2326 1.0500 5.0833
Atom 4.4590 8.0222 2.6895
Atom 1.4049 3.4910 6.4184
Atom 0.0120 7.2456 2.1116
Atom 4.5524 3.7386 0.3950
Atom 6.8383 7.2839 9.4350
Atom 1.3845 6.5030 7.7335
Atom 5.8908 9.6138 0.4674
Atom 9.1625 1.2151 2.6368
Atom 0.3844 9.8307 2.0090
Atom 9.5519 3.0576 0.3659
Atom 1.6238 5.0737 8.5356
Atom 6.1328 1.3616 6.0325
Atom 3.4642 9.4168 9.8498
Atom 9.4011 4.2034 1.5031
Atom 5.5134 5.3635 4.3166
Atom 8.9415 8.9271 2.3232
Atom 2.7558 6.5118 6.0270
Atom 2.7993 8.0317 5.9715
Atom 1.7927 5.6223 5.7142
Atom 7.2246 8.8429 0.9048
Atom 8.8407 4.4553 1.7041
Atom 7.4398 0.0821 7.9193
Atom 3.0731 9.7505 0.6572
Atom 9.3554 1.0382 0.1591
Atom 8.7826 9.3826 4.5133
Atom 2.4852 4.3500 6.7937
Atom 5.7105 5.2576 9.3692
Atom 9.9606 2.1747 0.2024
Atom 9.0568 6.1110 4.7899
Atom 3.7079 3.6225 6.7194
Atom 2.4086 8.5846 4.4541
Atom 5.4472 0.7078 9.7550
Atom 4.3896 5.6007 2.1605
Atom 2.3430 5.6052 5.5430
Atom 8.4235 8.4253 9.4221
Atom 8.7287 4.3679 5.5678
Atom 5.8366 4.9328 7.1568
Atom 1.3430 1.1302 8.7735
Atom 0.0198 9.7379 5.8927
Atom 6.4214 6.9872 9.1183
Atom 4.0766 6.5547 6.7987
Atom 1.6667 0.5710 5.6288
Atom 1.0165 2.6047 4.3346
Atom 5.7479 3.8666 8.0753
Atom 3.6498 8.4612 7.4717
Atom 8.6464 5.9272 4.2386
Atom 1.3664 6.8742 7.2384
Atom 6.9003 1.4973 3.1275
Atom 8.2070 4.3736 8.0864
Atom 4.8859 8.9697 6.9798
Atom 3.7980 2.0297 4.8915
Atom 4.2240 2.7497 5.8716
Atom 7.4018 8.4715 1.9845
Atom 3.9758 6.0252 3.5917
Atom 4.3900 6.8485 1.3945
Atom 4.4244 9.6914 0.1955
Atom 3.8739 1.4937 8.3935
Atom 7.9744 2.6590 5.5906
Atom 3.2995 2.9872 4.5154
Atom 0.9591 3.9687 2.5230
Atom 5.9394 1.8064 2.5502
Atom 6.0112 4.3312 1.8381
Atom 3.7543 6.0466 0.1902
Atom 4.4001 1.4646 1.2065
Atom 4.5154 4.1187 9.3272
Atom 7.6216 7.4961 8.3858
Atom 6.9910 8.2284 3.3398
Atom 9.2887 9.4045 9.9805
Atom 5.0423 0.5932 6.9202
Atom 2.6258 0.0818 9.3328
Atom 5.0433 6.9695 3.2688
Atom 3.6225 4.8147 8.4733
Atom 6.3060 1.9110 3.5809
Atom 4.8432 1.6113 6.1943
Atom 8.4446 4.3048 6.9174
Atom 2.5686 0.4214 1.2609
Atom 6.5726 3.1449 5.0099
Atom 2.1818 3.4789 0.4782
Atom 1.2326 3.1331 9.7311
Atom 8.6520 0.1735 8.0855
Atom 3.8559 5.2617 5.1341
Atom 4.6333 8.6132 6.7037
Atom 9.6074 4.1212 7.8803
Atom 1.0797 4.1264 5.3404
Atom 4.6036 4.7131 4.1686
Atom 9.4930 8.2699 9.4723
Atom 6.9118 5.7906 4.8845
100
Step 60
Atom 2.1269 4.6653 1.0092
Atom 3.1267 1.9611 1.1501
Atom 6.9085 5.1747 9.1555
Atom 9.5625 7.4125 7.8732
Atom 0.2879 9.7292 6.2351
Atom 3.6095 0.8867 6.0477
Atom 9.9024 6.0660 1.3634
Atom 3.3652 8.4934 2.8895
Atom 8.8170 6.2283 1.1992
Atom 8.7980 4.9150 0.5901
Atom 8.6198 0.4080 5.3764
Atom 9.8542 8.1671 5.7304
Atom 9.3302 1.0113 5.1321
Atom 4.4394 8.0137 2.6046
Atom 1.4269 3.4711 6.3888
Atom 0.0395 7.2088 2.0563
Atom 4.5380 3.6898 0.3858
Atom 6.7284 7.2259 9.4252
Atom 1.4866 6.5878 7.7578
Atom 5.8528 9.5958 0.4445
Atom 9.1655 1.1550 2.6834
Atom 0.3599 9.8321 2.1364
Atom 9.5898 2.9410 0.4246
Atom 1.6615 5.0597 8.5059
Atom 6.2296 1.3350 6.1556
Atom 3.4943 9.4512 9.8485
Atom 9.3796 4.1707 1.4878
Atom 5.4791 5.3432 4.2881
Atom 9.0200 8.9012 2.1963
Atom 2.8780 6.4205 6.0556
Atom 2.8281 7.9082 5.9836
Atom 1.8678 5.5084 5.7188
Atom 7.1204 8.8690 0.9179
Atom 8.8519 4.5782 1.6869
Atom 7.5505 9.9872 7.9317
Atom 3.0387 9.8866 0.7376
Atom 9.2918 1.1677 0.1176
Atom 8.7907 9.4397 4.4649
Atom 2.4463 4.3522 6.7441
Atom 5.7925 5.2862 9.3990
Atom 9.8981 2.1630 0.2843
Atom 9.0272 6.1612 4.8575
Atom 3.6113 3.6433 6.7603
Atom 2.3719 8.7061 4.5311
Atom 5.3884 0.7053 9.7809
Atom 4.4034 5.6552 2.1762
Atom 2.3650 5.6424 5.5864
Atom 8.3556 8.4035 9.3923
Atom 8.6351 4.2941 5.6888
Atom 5.6403 4.9079 7.1357
Atom 1.4666 1.2280 8.7985
Atom 0.0408 9.9016 5.8885
Atom 6.2977 7.0268 9.0226
Atom 4.0531 6.4373 6.6367
Atom 1.7233 0.6092 5.6032
Atom 0.8509 2.5639 4.4436
Atom 5.8126 3.9149 8.1504
Atom 3.6141 8.5439 7.5956
Atom 8.8177 5.9684 4.0609
Atom 1.3046 6.8105 7.2127
Atom 6.9479 1.5509 3.1081
Atom 8.2359 4.4172 8.0877
Atom 4.8983 8.9731 6.9054
Atom 3.6659 2.0417 4.8739
Atom 4.2775 2.8313 5.7718
Atom 7.4022 8.4068 2.0489
Atom 4.0058 6.0436 3.5254
Atom 4.3368 6.7121 1.3917
Atom 4.4513 9.6932 0.2688
Atom 3.9619 1.5040 8.3490
Atom 7.9990 2.5909 5.5313
Atom 3.3623 2.9663 4.5883
Atom 0.9225 4.0426 2.5055
Atom 5.9655 1.8188 2.4944
Atom 5.9509 4.4142 1.8719
Atom 3.6723 6.1404 0.2430
Atom 4.3677 1.4090 1.2195
Atom 4.5551 4.1965 9.2186
Atom 7.7536 7.5359 8.3605
Atom 7.0566 8.1674 3.3046
Atom 9.3322 9.4437 9.8951
Atom 5.0057 0.6452 6.7714
Atom 2.5196 0.0728 9.2699
Atom 4.9710 7.0030 3.3925
Atom 3.6195 4.7631 8.4021
Atom 6.3568 1.8556 3.5831
Atom 4.8281 1.5958 6.0944
Atom 8.5009 4.2925 6.8765
Atom 2.6065 0.4518 1.1907
Atom 6.5855 2.9509 5.0353
Atom 2.2219 3.4150 0.4048
Atom 1.0080 3.0714 9.8346
Atom 8.4640 0.1441 8.0643
Atom 3.8482 5.2646 5.3085
Atom 4.6664 8.6109 6.7715
Atom 9.5194 4.1044 7.9515
Atom 1.1150 4.2274 5.3338
Atom 4.5579 4.6735 4.0803
Atom 9.3710 8.1818 9.4697
Atom 7.0107 5.7427 4.8634
100
Step 70
Atom 2.1409 4.7001 0.9311
Atom 3.1344 1.9426 1.1312
Atom 6.9083 5.1051 9.3094
Atom 9.5990 7.4747 8.0150
Atom 0.2856 9.6399 6.1963
Atom 3.6645 0.9374 5.9461
Atom 9.9522 6.0632 1.3881
Atom 3.3801 8.5825 2.9525
Atom 8.8436 6.2605 1.1980
Atom 8.9227 4.9247 0.5853
Atom 8.6944 0.3672 5.3419
Atom 9.8232 8.2253 5.8596
Atom 9.4281 0.9724 5.1811
Atom 4.4199 8.0054 2.5192
Atom 1.4492 3.4513 6.3593
Atom 0.0668 7.1719 2.0007
Atom 4.5236 3.6411 0.3764
Atom 6.6181 7.1678 9.4155
Atom 1.5895 6.6728 7.7818
Atom 5.8148 9.5775 0.4216
Atom 9.1685 1.0948 2.7300
Atom 0.3352 9.8335 2.2639
Atom 9.6282 2.8243 0.4835
Atom 1.6995 5.0455 8.4762
Atom 6.3266 1.3083 6.2790
Atom 3.5246 9.4860 9.8472
Atom 9.3582 4.1379 1.4724
Atom 5.4446 5.3226 4.2595
Atom 9.0988 8.8751 2.0687
Atom 3.0008 6.3289 6.0842
Atom 2.8569 7.7841 5.9959
Atom 1.9434 5.3942 5.7235
Atom 7.0158 8.8951 0.9308
Atom 8.8631 4.7015 1.6695
Atom 7.6615 9.8918 7.9442
Atom 3.0044 0.0231 0.8183
Atom 9.2283 1.2976 0.0762
Atom 8.7989 9.4972 4.4161
Atom 2.4076 4.3545 6.6943
Atom 5.8748 5.3150 9.4290
Atom 9.8356 2.1513 0.3667
Atom 8.9976 6.2114 4.9253
Atom 3.5144 3.6644 6.8014
Atom 2.3350 8.8278 4.6087
Atom 5.3293 0.7026 9.8068
Atom 4.4172 5.7097 2.1917
Atom 2.3874 5.6794 5.6301
Atom 8.2874 8.3815 9.3628
Atom 8.5413 4.2200 5.8102
Atom 5.4433 4.8828 7.1143
Atom 1.5909 1.3261 8.8238
Atom 0.0619 0.0658 5.8844
Atom 6.1737 7.0668 8.9266
Atom 4.0291 6.3192 6.4741
Atom 1.7803 0.6477 5.5776
Atom 0.6849 2.5230 4.5530
Atom 5.8772 3.9632 8.2255
Atom 3.5782 8.6270 7.7199
Atom 8.9897 6.0098 3.8822
Atom 1.2427 6.7465 7.1869
Atom 6.9957 1.6046 3.0888
Atom 8.2648 4.4611 8.0892
Atom 4.9106 8.9764 6.8308
Atom 3.5334 2.0538 4.8565
Atom 4.3312 2.9136 5.6720
Atom 7.4027 8.3418 2.1131
Atom 4.0356 6.0622 3.4591
Atom 4.2837 6.5752 1.3886
Atom 4.4785 9.6950 0.3422
Atom 4.0500 1.5144 8.3046
Atom 8.0235 2.5226 5.4716
Atom 3.4250 2.9454 4.6620
Atom 0.8857 4.1167 2.4876
Atom 5.9917 1.8314 2.4384
Atom 5.8904 4.4977 1.9059
Atom 3.5902 6.2344 0.2959
Atom 4.3352 1.3531 1.2324
Atom 4.5948 4.2745 9.1095
Atom 7.8859 7.5760 8.3353
Atom 7.1222 8.1060 3.2692
Atom 9.3758 9.4830 9.8095
Atom 4.9688 0.6975 6.6222
Atom 2.4132 0.0640 9.2068
Atom 4.8985 7.0366 3.5167
Atom 3.6164 4.7115 8.3306
Atom 6.4078 1.8002 3.5856
Atom 4.8129 1.5802 5.9942
Atom 8.5573 4.2803 6.8355
Atom 2.6443 0.4824 1.1203
Atom 6.5984 2.7567 5.0607
Atom 2.2619 3.3509 0.3309
Atom 0.7826 3.0097 9.9384
Atom 8.2756 0.1143 8.0427
Atom 3.8406 5.2674 5.4836
Atom 4.6995 8.6088 6.8395
Atom 9.4314 4.0875 8.0233
Atom 1.1505 4.3288 5.3272
Atom 4.5121 4.6335 3.9921
Atom 9.2483 8.0934 9.4674
Atom 7.1096 5.6946 4.8423
100
Step 80
Atom 2.1550 4.7350 0.8528
Atom 3.1421 1.9238 1.1119
Atom 6.9081 5.0353 9.4634
Atom 9.6355 7.5372 8.1570
Atom 0.2835 9.5504 6.1577
Atom 3.7197 0.9881 5.8444
Atom 0.0020 6.0605 1.4129
Atom 3.3950 8.6716 3.0152
Atom 8.8700 6.2933 1.1967
Atom 9.0477 4.9342 0.5801
Atom 8.7689 0.3263 5.3073
Atom 9.7922 8.2836 5.9889
Atom 9.5260 0.9335 5.2303
Atom 4.4006 7.9973 2.4334
Atom 1.4717 3.4318 6.3298
Atom 0.0940 7.1350 1.9449
Atom 4.5091 3.5926 0.3669
Atom 6.5077 7.1098 9.4059
Atom 1.6928 6.7577 7.8055
Atom 5.7769 9.5588 0.3986
Atom 9.1715 1.0348 2.7764
Atom 0.3105 9.8348 2.3915
Atom 9.6669 2.7074 0.5425
Atom 1.7376 5.0309 8.4463
Atom 6.4237 1.2814 6.4027
Atom 3.5550 9.5211 9.8459
Atom 9.3369 4.1050 1.4569
Atom 5.4099 5.3018 4.2311
Atom 9.1777 8.8488 1.9407
Atom 3.1240 6.2369 6.1129
Atom 2.8858 7.6597 6.0081
Atom 2.0194 5.2799 5.7284
Atom 6.9111 8.9214 0.9433
Atom 8.8743 4.8251 1.6522
Atom 7.7726 9.7963 7.9566
Atom 2.9703 0.1597 0.8991
Atom 9.1647 1.4273 0.0348
Atom 8.8071 9.5548 4.3670
Atom 2.3691 4.3569 6.6443
Atom 5.9569 5.3439 9.4594
Atom 9.7732 2.1396 0.4494
Atom 8.9682 6.2616 4.9934
Atom 3.4174 3.6856 6.8424
Atom 2.2979 8.9497 4.6866
Atom 5.2698 0.6999 9.8329
Atom 4.4310 5.7642 2.2071
Atom 2.4099 5.7161 5.6740
Atom 8.2189 8.3593 9.3335
Atom 8.4474 4.1456 5.9315
Atom 5.2460 4.8576 7.0926
Atom 1.7156 1.4244 8.8497
Atom 0.0830 0.2303 5.8804
Atom 6.0494 7.1071 8.8306
Atom 4.0048 6.2008 6.3113
Atom 1.8374 0.6862 5.5521
Atom 0.5186 2.4820 4.6626
Atom 5.9416 4.0114 8.3008
Atom 3.5422 8.7102 7.8443
Atom 9.1620 6.0511 3.7029
Atom 1.1809 6.6823 7.1609
Atom 7.0438 1.6583 3.0697
Atom 8.2938 4.5053 8.0909
Atom 4.9227 8.9798 6.7562
Atom 3.4007 2.0663 4.8394
Atom 4.3850 2.9961 5.5723
Atom 7.4032 8.2766 2.1772
Atom 4.0653 6.0808 3.3929
Atom 4.2307 6.4380 1.3855
Atom 4.5057 9.6967 0.4158
Atom 4.1381 1.5248 8.2605
Atom 8.0481 2.4540 5.4116
Atom 3.4874 2.9248 4.7360
Atom 0.8488 4.1908 2.4696
Atom 6.0178 1.8440 2.3822
Atom 5.8296 4.5814 1.9400
Atom 3.5083 6.3283 0.3486
Atom 4.3026 1.2972 1.2452
Atom 4.6343 4.3527 9.0002
Atom 8.0184 7.6161 8.3102
Atom 7.1879 8.0443 3.2338
Atom 9.4194 9.5224 9.7237
Atom 4.9318 0.7501 6.4727
Atom 2.3066 0.0552 9.1437
Atom 4.8260 7.0700 3.6413
Atom 3.6131 4.6599 8.2589
Atom 6.4588 1.7446 3.5886
Atom 4.7977 1.5647 5.8940
Atom 8.6137 4.2683 6.7942
Atom 2.6820 0.5130 1.0497
Atom 6.6113 2.5625 5.0863
Atom 2.3018 3.2866 0.2566
Atom 0.5568 2.9482 0.0424
Atom 8.0871 0.0843 8.0210
Atom 3.8327 5.2702 5.6590
Atom 4.7325 8.6068 6.9077
Atom 9.3437 4.0706 8.0955
Atom 1.1861 4.4305 5.3206
Atom 4.4662 4.5935 3.9039
Atom 9.1252 8.0049 9.4654
Atom 7.2083 5.6463 4.8211
100
Step 90
Atom 2.1691 4.7698 0.7743
Atom 3.1498 1.9049 1.0922
Atom 6.9079 4.9656 9.6178
Atom 9.6719 7.5998 8.2992
Atom 0.2814 9.4607 6.1191
Atom 3.7750 1.0385 5.7430
Atom 0.0520 6.0579 1.4375
Atom 3.4101 8.7609 3.0776
Atom 8.8963 6.3264 1.1954
Atom 9.1731 4.9437 0.5747
Atom 8.8433 0.2857 5.2727
Atom 9.7614 8.3421 6.1185
Atom 9.6239 0.8944 5.2795
Atom 4.3814 7.9893 2.3472
Atom 1.4946 3.4124 6.3002
Atom 0.1209 7.0979 1.8889
Atom 4.4945 3.5444 0.3571
Atom 6.3973 7.0518 9.3965
Atom 1.7965 6.8424 7.8290
Atom 5.7390 9.5398 0.3756
Atom 9.1744 0.9749 2.8228
Atom 0.2858 9.8362 2.5190
Atom 9.7059 2.5907 0.6016
Atom 1.7758 5.0159 8.4162
Atom 6.5208 1.2542 6.5264
Atom 3.5854 9.5564 9.8444
Atom 9.3156 4.0722 1.4414
Atom 5.3750 5.2808 4.2029
Atom 9.2563 8.8222 1.8124
Atom 3.2475 6.1445 6.1417
Atom 2.9149 7.5350 6.0203
Atom 2.0956 5.1656 5.7335
Atom 6.8063 8.9477 0.9556
Atom 8.8855 4.9488 1.6347
Atom 7.8839 9.7007 7.9690
Atom 2.9363 0.2965 0.9799
Atom 9.1010 1.5570 9.9933
Atom 8.8153 9.6124 4.3176
Atom 2.3309 4.3594 6.5941
Atom 6.0389 5.3728 9.4899
Atom 9.7109 2.1278 0.5321
Atom 8.9389 6.3118 5.0616
Atom 3.3203 3.7070 6.8834
Atom 2.2606 9.0717 4.7650
Atom 5.2101 0.6971 9.8592
Atom 4.4447 5.8186 2.2223
Atom 2.4327 5.7523 5.7181
Atom 8.1502 8.3369 9.3045
Atom 8.3535 4.0710 6.0528
Atom 5.0485 4.8325 7.0707
Atom 1.8405 1.5227 8.8760
Atom 0.1042 0.3951 5.8763
Atom 5.9250 7.1476 8.7346
Atom 3.9804 6.0820 6.1485
Atom 1.8947 0.7250 5.5267
Atom 0.3520 2.4408 4.7722
Atom 6.0059 4.0597 8.3760
Atom 3.5062 8.7935 7.9687
Atom 9.3344 6.0925 3.5232
Atom 1.1191 6.6178 7.1348
Atom 7.0919 1.7120 3.0506
Atom 8.3228 4.5496 8.0930
Atom 4.9346 8.9833 6.6814
Atom 3.2680 2.0791 4.8226
Atom 4.4388 3.0791 5.4729
Atom 7.4039 8.2113 2.2410
Atom 4.0949 6.0995 3.3270
Atom 4.1779 6.3004 1.3822
Atom 4.5329 9.6983 0.4894
Atom 4.2259 1.5352 8.2164
Atom 8.0727 2.3852 5.3513
Atom 3.5496 2.9048 4.8105
Atom 0.8117 4.2648 2.4513
Atom 6.0439 1.8568 2.3259
Atom 5.7689 4.6654 1.9739
Atom 3.4266 6.4220 0.4011
Atom 4.2699 1.2413 1.2580
Atom 4.6733 4.4310 8.8907
Atom 8.1512 7.6563 8.2852
Atom 7.2537 7.9823 3.1984
Atom 9.4630 9.5617 9.6380
Atom 4.8946 0.8029 6.3230
Atom 2.2002 0.0466 9.0807
Atom 4.7535 7.1033 3.7663
Atom 3.6098 4.6086 8.1870
Atom 6.5099 1.6890 3.5920
Atom 4.7823 1.5493 5.7936
Atom 8.6703 4.2564 6.7528
Atom 2.7196 0.5438 0.9789
Atom 6.6241 2.3683 5.1120
Atom 2.3415 3.2223 0.1821
Atom 0.3309 2.8870 0.1464
Atom 7.8987 0.0541 7.9990
Atom 3.8247 5.2730 5.8346
Atom 4.7655 8.6046 6.9760
Atom 9.2563 4.0536 8.1683
Atom 1.2220 4.5324 5.3143
Atom 4.4202 4.5536 3.8160
Atom 9.0017 7.9163 9.4637
Atom 7.3070 5.5978 4.7999
