100
Step 0
Atom 7.0736 2.7815 6.4272
Atom 2.9304 6.3200 6.1516
Atom 8.6456 4.0548 0.8951
Atom 0.5429 6.9292 0.2395
Atom 6.2858 1.0127 3.5093
Atom 5.1003 1.4510 6.7538
Atom 8.5263 8.8870 8.0989
Atom 2.5412 9.9311 2.3264
Atom 4.1651 1.0212 5.4386
Atom 3.9685 6.2654 3.7797
Atom 2.7007 3.3570 8.6628
Atom 9.5522 0.6989 3.6515
Atom 8.7291 4.7711 2.3250
Atom 3.6676 8.9363 7.8639
Atom 4.3576 0.3130 7.2416
Atom 1.0064 1.5338 1.6561
Atom 7.6140 2.3969 0.9199
Atom 9.7413 1.0803 6.5153
Atom 6.5973 1.2179 5.3246
Atom 4.3522 5.9816 2.5572
Atom 7.7514 1.4919 2.8668
Atom 0.7906 3.7256 1.6652
Atom 6.4172 6.2392 0.0525
Atom 4.5617 7.0513 8.0413
Atom 2.2401 3.0240 1.8033
Atom 2.7726 8.8470 2.1695
Atom 7.4702 5.5769 6.9356
Atom 4.5447 1.7678 8.1799
Atom 4.2643 2.7322 7.3527
Atom 6.9088 9.7630 2.6966
Atom 4.3840 5.4741 0.8064
Atom 4.8827 2.5470 9.5822
Atom 3.1379 4.1599 1.3926
Atom 1.1473 6.0330 3.5476
Atom 2.1876 9.2669 7.5075
Atom 4.4502 7.1623 6.2605
Atom 9.9849 4.8135 8.8680
Atom 8.2229 2.8168 9.5296
Atom 3.5105 7.6701 1.8413
Atom 3.3371 5.4141 3.4505
Atom 5.7052 6.4691 3.0233
Atom 8.7221 4.4437 6.5838
Atom 5.8892 0.1113 0.6333
Atom 4.7901 7.4674 2.0730
Atom 1.5572 5.2195 3.1834
Atom 6.2203 6.1540 1.1822
Atom 4.2641 1.8654 6.5442
Atom 8.9636 5.6736 7.0593
Atom 5.7493 7.8601 0.7364
Atom 9.2513 6.2169 2.8209
Atom 2.9185 5.7531 4.3543
Atom 9.2290 1.9056 9.3933
Atom 3.1467 2.3976 0.1344
Atom 8.8345 2.4781 6.8377
Atom 1.5455 5.0607 4.9167
Atom 7.8319 7.3975 1.2232
Atom 9.9978 2.7815 2.3277
Atom 5.6261 4.9278 7.3717
Atom 4.5160 8.9244 4.0340
Atom 1.9063 4.1790 9.4863
Atom 5.5218 5.3555 3.6143
Atom 3.8781 1.2644 1.9966
Atom 7.2929 8.3804 1.7663
Atom 0.0472 0.2221 3.1917
Atom 1.2408 2.2676 3.1738
Atom 6.2741 1.5363 9.6247
Atom 3.1218 8.6595 0.7599
Atom 4.7666 0.6712 2.5878
Atom 7.9413 8.4448 4.3883
Atom 0.0202 8.8321 7.0538
Atom 6.5655 8.6887 6.2236
Atom 5.3562 9.5877 0.4007
Atom 0.3089 4.0853 5.7388
Atom 1.8722 7.4081 5.6342
Atom 9.4392 0.0050 1.9677
Atom 6.4681 3.4070 3.6120
Atom 6.7255 6.8759 5.4507
Atom 5.6812 4.4772 0.1409
Atom 4.6542 1.7188 0.8016
Atom 0.0653 0.8664 4.6041
Atom 9.2704 1.9888 4.5914
Atom 0.9737 2.8859 5.0040
Atom 4.9669 3.5318 4.6880
Atom 2.4775 9.6124 9.0507
Atom 3.6193 9.8593 5.6260
Atom 9.9014 3.5198 4.3602
Atom 4.4489 2.8552 3.0035
Atom 9.2035 5.5920 8.1026
Atom 1.2227 8.5928 9.3002
Atom 4.4332 8.4474 3.2272
Atom 6.7841 2.6311 2.2685
Atom 2.9651 2.7017 2.0848
Atom 8.9190 2.4844 5.4668
Atom 0.7955 6.4335 6.2509
Atom 7.7107 5.4090 8.2834
Atom 7.1074 9.9618 7.1579
Atom 6.9970 2.9527 9.0670
Atom 9.7823 0.7493 2.6647
Atom 4.3146 7.6445 2.9256
Atom 4.0491 5.2163 8.1980
100
Step 10
Atom 6.9548 2.7862 6.4868
Atom 2.9807 6.3192 6.1029
Atom 8.6507 4.0962 0.8818
Atom 0.5587 6.8821 0.2938
Atom 6.3214 1.0479 3.4787
Atom 5.0992 1.3382 6.7454
Atom 8.5621 8.7924 8.1169
Atom 2.6243 9.9452 2.3111
Atom 4.1678 1.0491 5.4393
Atom 3.9005 6.2635 3.7902
Atom 2.7414 3.4036 8.6365
Atom 9.5673 0.5949 3.7094
Atom 8.6726 4.7029 2.2593
Atom 3.7116 8.9991 7.8698
Atom 4.3743 0.3079 7.2045
Atom 0.9270 1.4950 1.5927
Atom 7.5819 2.4430 0.9301
Atom 9.8046 1.0689 6.5755
Atom 6.6565 1.1630 5.3072
Atom 4.3417 6.0056 2.5778
Atom 7.7942 1.4805 2.9118
Atom 0.8459 3.7673 1.6531
Atom 6.3733 6.2645 9.9986
Atom 4.6122 7.0371 8.1119
Atom 2.2464 3.0062 1.7437
Atom 2.8693 8.7982 2.1424
Atom 7.4388 5.6043 6.8834
Atom 4.4852 1.8204 8.2184
Atom 4.3117 2.7688 7.3697
Atom 6.9276 9.7656 2.7613
Atom 4.3109 5.4831 0.8160
Atom 4.9359 2.5930 9.6382
Atom 3.0812 4.1667 1.4369
Atom 1.0097 6.0746 3.5540
Atom 2.2017 9.2658 7.4806
Atom 4.4489 7.2238 6.2737
Atom 0.0120 4.7102 8.8468
Atom 8.2545 2.9119 9.6230
Atom 3.5323 7.6676 1.8042
Atom 3.3419 5.4066 3.4688
Atom 5.7234 6.5501 3.0559
Atom 8.8353 4.4457 6.5884
Atom 5.7501 0.1101 0.6375
Atom 4.8472 7.5182 2.1205
Atom 1.5406 5.2060 3.2507
Atom 6.2437 6.1801 1.1312
Atom 4.3240 1.8592 6.5058
Atom 8.9098 5.6958 7.0780
Atom 5.8021 7.8325 0.6230
Atom 9.2362 6.2393 2.8544
Atom 2.8685 5.6560 4.3394
Atom 9.2427 2.0033 9.3611
Atom 3.0815 2.3897 0.1348
Atom 8.8318 2.4413 6.8357
Atom 1.5050 5.0485 4.8374
Atom 7.8463 7.3975 1.2127
Atom 0.0132 2.8493 2.3246
Atom 5.5701 4.9639 7.4032
Atom 4.5309 9.0657 4.0346
Atom 1.9675 4.2143 9.5016
Atom 5.5775 5.3503 3.5279
Atom 3.8820 1.2623 1.9955
Atom 7.3585 8.3710 1.7860
Atom 0.0598 0.2578 3.1384
Atom 1.3793 2.3355 3.2185
Atom 6.2193 1.5132 9.6313
Atom 3.1294 8.6588 0.8272
Atom 4.7009 0.6475 2.5959
Atom 7.9143 8.4843 4.3385
Atom 0.0538 8.7988 7.0237
Atom 6.5869 8.6729 6.1413
Atom 5.3814 9.5177 0.3728
Atom 0.3248 4.0232 5.7735
Atom 1.8228 7.5539 5.5953
Atom 9.3676 9.9592 1.9004
Atom 6.4710 3.3489 3.5777
Atom 6.6732 6.8779 5.4328
Atom 5.7133 4.5119 0.1286
Atom 4.6584 1.7255 0.7927
Atom 0.0941 0.8464 4.5643
Atom 9.2794 1.9462 4.5712
Atom 0.9903 2.8492 5.0054
Atom 4.9760 3.5133 4.6735
Atom 2.4974 9.5662 9.0667
Atom 3.6115 9.8349 5.6896
Atom 9.9205 3.6060 4.3845
Atom 4.4094 2.7797 2.9570
Atom 9.1539 5.6166 7.9720
Atom 1.1461 8.5766 9.3687
Atom 4.4417 8.4589 3.3328
Atom 6.7344 2.5598 2.2370
Atom 2.8895 2.6422 2.1450
Atom 8.9172 2.4757 5.4815
Atom 0.7651 6.4833 6.3467
Atom 7.6872 5.3298 8.3668
Atom 7.0595 0.0050 6.9938
Atom 6.9653 2.9133 9.1514
Atom 9.8396 0.7519 2.5480
Atom 4.2785 7.6594 3.0116
Atom 4.0797 5.1562 8.3165
100
Step 20
Atom 6.8358 2.7909 6.5465
Atom 3.0312 6.3185 6.0542
Atom 8.6556 4.1376 0.8682
Atom 0.5745 6.8348 0.3482
Atom 6.3566 1.0830 3.4481
Atom 5.0980 1.2254 6.7371
Atom 8.5979 8.6977 8.1349
Atom 2.7075 9.9592 2.2959
Atom 4.1706 1.0773 5.4399
Atom 3.8322 6.2615 3.8009
Atom 2.7825 3.4501 8.6104
Atom 9.5825 0.4913 3.7673
Atom 8.6160 4.6344 2.1938
Atom 3.7557 9.0621 7.8756
Atom 4.3912 0.3027 7.1676
Atom 0.8477 1.4562 1.5294
Atom 7.5496 2.4891 0.9406
Atom 9.8678 1.0576 6.6355
Atom 6.7158 1.1082 5.2895
Atom 4.3311 6.0296 2.5983
Atom 7.8373 1.4691 2.9569
Atom 0.9013 3.8090 1.6411
Atom 6.3292 6.2897 9.9448
Atom 4.6628 7.0228 8.1827
Atom 2.2528 2.9885 1.6841
Atom 2.9664 8.7496 2.1155
Atom 7.4073 5.6317 6.8313
Atom 4.4259 1.8728 8.2570
Atom 4.3593 2.8057 7.3867
Atom 6.9465 9.7683 2.8258
Atom 4.2378 5.4923 0.8258
Atom 4.9888 2.6390 9.6943
Atom 3.0246 4.1734 1.4814
Atom 0.8722 6.1160 3.5605
Atom 2.2160 9.2646 7.4534
Atom 4.4476 7.2855 6.2867
Atom 0.0388 4.6065 8.8257
Atom 8.2861 3.0073 9.7164
Atom 3.5544 7.6651 1.7672
Atom 3.3470 5.3992 3.4869
Atom 5.7414 6.6314 3.0884
Atom 8.9486 4.4475 6.5929
Atom 5.6110 0.1091 0.6421
Atom 4.9045 7.5691 2.1680
Atom 1.5240 5.1921 3.3178
Atom 6.2671 6.2063 1.0804
Atom 4.3842 1.8530 6.4673
Atom 8.8560 5.7179 7.0965
Atom 5.8544 7.8048 0.5101
Atom 9.2212 6.2615 2.8880
Atom 2.8188 5.5591 4.3243
Atom 9.2564 2.1012 9.3290
Atom 3.0164 2.3816 0.1354
Atom 8.8290 2.4046 6.8339
Atom 1.4645 5.0363 4.7580
Atom 7.8606 7.3975 1.2023
Atom 0.0285 2.9166 2.3219
Atom 5.5141 4.9996 7.4347
Atom 4.5458 9.2069 4.0348
Atom 2.0290 4.2496 9.5171
Atom 5.6330 5.3455 3.4412
Atom 3.8861 1.2599 1.9943
Atom 7.4235 8.3615 1.8058
Atom 0.0724 0.2938 3.0851
Atom 1.5177 2.4034 3.2632
Atom 6.1643 1.4902 9.6379
Atom 3.1374 8.6581 0.8949
Atom 4.6351 0.6236 2.6037
Atom 7.8874 8.5241 4.2883
Atom 0.0877 8.7652 6.9935
Atom 6.6079 8.6573 6.0591
Atom 5.4063 9.4476 0.3455
Atom 0.3406 3.9614 5.8081
Atom 1.7737 7.6997 5.5564
Atom 9.2956 9.9134 1.8333
Atom 6.4741 3.2907 3.5435
Atom 6.6206 6.8797 5.4147
Atom 5.7454 4.5464 0.1163
Atom 4.6627 1.7324 0.7837
Atom 0.1227 0.8266 4.5243
Atom 9.2884 1.9039 4.5508
Atom 1.0068 2.8125 5.0066
Atom 4.9850 3.4946 4.6593
Atom 2.5176 9.5203 9.0829
Atom 3.6037 9.8103 5.7530
Atom 9.9395 3.6924 4.4086
Atom 4.3698 2.7042 2.9104
Atom 9.1042 5.6413 7.8415
Atom 1.0695 8.5605 9.4370
Atom 4.4501 8.4704 3.4381
Atom 6.6846 2.4884 2.2052
Atom 2.8139 2.5826 2.2053
Atom 8.9153 2.4667 5.4958
Atom 0.7345 6.5329 6.4425
Atom 7.6636 5.2503 8.4504
Atom 7.0114 0.0484 6.8297
Atom 6.9336 2.8741 9.2355
Atom 9.8969 0.7545 2.4313
Atom 4.2425 7.6743 3.0973
Atom 4.1102 5.0958 8.4353
100
Step 30
Atom 6.7165 2.7958 6.6065
Atom 3.0819 6.3177 6.0055
Atom 8.6605 4.1790 0.8543
Atom 0.5901 6.7872 0.4026
Atom 6.3916 1.1181 3.4174
Atom 5.0969 1.1125 6.7289
Atom 8.6337 8.6029 8.1529
Atom 2.7910 9.9732 2.2808
Atom 4.1739 1.1057 5.4405
Atom 3.7637 6.2595 3.8115
Atom 2.8237 3.4965 8.5846
Atom 9.5975 0.3881 3.8252
Atom 8.5593 4.5657 2.1282
Atom 3.8000 9.1253 7.8816
Atom 4.4083 0.2975 7.1308
Atom 0.7684 1.4174 1.4661
Atom 7.5172 2.5352 0.9513
Atom 9.9310 1.0465 6.6953
Atom 6.7751 1.0535 5.2716
Atom 4.3204 6.0536 2.6187
Atom 7.8806 1.4577 3.0022
Atom 0.9565 3.8507 1.6292
Atom 6.2849 6.3150 9.8910
Atom 4.7135 7.0086 8.2536
Atom 2.2593 2.9710 1.6244
Atom 3.0639 8.7013 2.0887
Atom 7.3758 5.6589 6.7791
Atom 4.3667 1.9251 8.2959
Atom 4.4071 2.8424 7.4036
Atom 6.9651 9.7710 2.8902
Atom 4.1646 5.5016 0.8360
Atom 5.0416 2.6850 9.7506
Atom 2.9682 4.1804 1.5262
Atom 0.7350 6.1571 3.5672
Atom 2.2303 9.2634 7.4262
Atom 4.4462 7.3473 6.2993
Atom 0.0653 4.5026 8.8048
Atom 8.3176 3.1029 9.8097
Atom 3.5768 7.6628 1.7304
Atom 3.3522 5.3918 3.5050
Atom 5.7594 6.7129 3.1206
Atom 9.0621 4.4492 6.5973
Atom 5.4718 0.1080 0.6471
Atom 4.9621 7.6200 2.2155
Atom 1.5076 5.1779 3.3848
Atom 6.2906 6.2325 1.0299
Atom 4.4448 1.8470 6.4287
Atom 8.8023 5.7399 7.1148
Atom 5.9061 7.7770 0.3974
Atom 9.2063 6.2836 2.9216
Atom 2.7692 5.4623 4.3093
Atom 9.2702 2.1994 9.2969
Atom 2.9512 2.3735 0.1362
Atom 8.8263 2.3680 6.8321
Atom 1.4241 5.0241 4.6784
Atom 7.8748 7.3976 1.1921
Atom 0.0436 2.9835 2.3196
Atom 5.4581 5.0352 7.4663
Atom 4.5608 9.3479 4.0345
Atom 2.0907 4.2849 9.5328
Atom 5.6883 5.3410 3.3541
Atom 3.8904 1.2572 1.9931
Atom 7.4881 8.3519 1.8257
Atom 0.0849 0.3302 3.0318
Atom 1.6559 2.4711 3.3080
Atom 6.1095 1.4674 9.6445
Atom 3.1456 8.6575 0.9626
Atom 4.5692 0.5996 2.6114
Atom 7.8605 8.5642 4.2378
Atom 0.1216 8.7316 6.9634
Atom 6.6286 8.6419 5.9768
Atom 5.4311 9.3775 0.3186
Atom 0.3562 3.8997 5.8427
Atom 1.7249 7.8452 5.5172
Atom 9.2235 9.8677 1.7664
Atom 6.4773 3.2324 3.5093
Atom 6.5678 6.8813 5.3964
Atom 5.7776 4.5807 0.1039
Atom 4.6671 1.7395 0.7747
Atom 0.1511 0.8070 4.4841
Atom 9.2974 1.8619 4.5301
Atom 1.0231 2.7757 5.0077
Atom 4.9938 3.4755 4.6453
Atom 2.5381 9.4745 9.0990
Atom 3.5960 9.7854 5.8163
Atom 9.9584 3.7787 4.4325
Atom 4.3303 2.6287 2.8639
Atom 9.0546 5.6658 7.7110
Atom 0.9929 8.5445 9.5053
Atom 4.4585 8.4820 3.5434
Atom 6.6346 2.4169 2.1731
Atom 2.7383 2.5229 2.2657
Atom 8.9131 2.4575 5.5098
Atom 0.7040 6.5821 6.5382
Atom 7.6399 5.1703 8.5345
Atom 6.9632 0.0921 6.6655
Atom 6.9017 2.8351 9.3195
Atom 9.9542 0.7574 2.3147
Atom 4.2066 7.6892 3.1829
Atom 4.1409 5.0352 8.5541
100
Step 40
Atom 6.5971 2.8009 6.6665
Atom 3.1327 6.3168 5.9566
Atom 8.6651 4.2203 0.8399
Atom 0.6057 6.7394 0.4571
Atom 6.4262 1.1531 3.3867
Atom 5.0958 0.9994 6.7208
Atom 8.6694 8.5081 8.1707
Atom 2.8746 9.9874 2.2659
Atom 4.1775 1.1344 5.4408
Atom 3.6948 6.2575 3.8220
Atom 2.8651 3.5428 8.5591
Atom 9.6124 0.2851 3.8833
Atom 8.5025 4.4966 2.0625
Atom 3.8445 9.1887 7.8875
Atom 4.4258 0.2924 7.0940
Atom 0.6893 1.3787 1.4029
Atom 7.4847 2.5815 0.9623
Atom 9.9943 1.0355 6.7550
Atom 6.8344 0.9988 5.2533
Atom 4.3097 6.0776 2.6389
Atom 7.9241 1.4463 3.0478
Atom 1.0115 3.8925 1.6175
Atom 6.2405 6.3402 9.8372
Atom 4.7643 6.9945 8.3248
Atom 2.2660 2.9536 1.5648
Atom 3.1617 8.6532 2.0620
Atom 7.3442 5.6861 6.7270
Atom 4.3077 1.9773 8.3349
Atom 4.4550 2.8789 7.4204
Atom 6.9834 9.7740 2.9544
Atom 4.0915 5.5111 0.8465
Atom 5.0944 2.7310 9.8071
Atom 2.9118 4.1874 1.5713
Atom 0.5981 6.1980 3.5741
Atom 2.2446 9.2621 7.3990
Atom 4.4448 7.4094 6.3115
Atom 0.0915 4.3987 8.7842
Atom 8.3488 3.1987 9.9032
Atom 3.5996 7.6605 1.6937
Atom 3.3575 5.3844 3.5229
Atom 5.7773 6.7946 3.1526
Atom 9.1756 4.4509 6.6017
Atom 5.3324 0.1070 0.6524
Atom 5.0199 7.6712 2.2629
Atom 1.4914 5.1634 3.4516
Atom 6.3139 6.2587 0.9798
Atom 4.5056 1.8409 6.3901
Atom 8.7486 5.7618 7.1330
Atom 5.9574 7.7490 0.2849
Atom 9.1915 6.3055 2.9551
Atom 2.7196 5.3654 4.2941
Atom 9.2840 2.2979 9.2649
Atom 2.8860 2.3652 0.1371
Atom 8.8234 2.3313 6.8305
Atom 1.3838 5.0120 4.5989
Atom 7.8890 7.3976 1.1820
Atom 0.0587 3.0502 2.3177
Atom 5.4022 5.0707 7.4979
Atom 4.5759 9.4888 4.0337
Atom 2.1525 4.3201 9.5487
Atom 5.7436 5.3368 3.2667
Atom 3.8948 1.2543 1.9920
Atom 7.5520 8.3421 1.8457
Atom 0.0976 0.3669 2.9785
Atom 1.7940 2.5386 3.3527
Atom 6.0546 1.4449 9.6512
Atom 3.1542 8.6570 1.0306
Atom 4.5035 0.5755 2.6190
Atom 7.8337 8.6047 4.1872
Atom 0.1555 8.6979 6.9334
Atom 6.6489 8.6267 5.8944
Atom 5.4556 9.3073 0.2922
Atom 0.3718 3.8381 5.8773
Atom 1.6764 7.9906 5.4777
Atom 9.1510 9.8220 1.6996
Atom 6.4806 3.1740 3.4750
Atom 6.5149 6.8828 5.3779
Atom 5.8100 4.6149 0.0915
Atom 4.6714 1.7468 0.7657
Atom 0.1796 0.7876 4.4436
Atom 9.3065 1.8200 4.5090
Atom 1.0393 2.7389 5.0086
Atom 5.0026 3.4563 4.6314
Atom 2.5588 9.4288 9.1153
Atom 3.5885 9.7601 5.8793
Atom 9.9773 3.8652 4.4563
Atom 4.2907 2.5532 2.8174
Atom 9.0049 5.6903 7.5805
Atom 0.9165 8.5286 9.5735
Atom 4.4668 8.4937 3.6486
Atom 6.5844 2.3451 2.1405
Atom 2.6629 2.4629 2.3261
Atom 8.9105 2.4481 5.5236
Atom 0.6734 6.6311 6.6336
Atom 7.6163 5.0898 8.6189
Atom 6.9149 0.1359 6.5013
Atom 6.8698 2.7963 9.4034
Atom 0.0117 0.7606 2.1983
Atom 4.1706 7.7042 3.2684
Atom 4.1717 4.9743 8.6729
100
Step 50
Atom 6.4777 2.8059 6.7266
Atom 3.1834 6.3159 5.9075
Atom 8.6698 4.2615 0.8251
Atom 0.6212 6.6913 0.5118
Atom 6.4604 1.1879 3.3560
Atom 5.0947 0.8862 6.7127
Atom 8.7052 8.4131 8.1886
Atom 2.9584 0.0015 2.2510
Atom 4.1814 1.1632 5.4411
Atom 3.6257 6.2557 3.8322
Atom 2.9066 3.5892 8.5337
Atom 9.6273 0.1823 3.9414
Atom 8.4458 4.4272 1.9968
Atom 3.8891 9.2525 7.8935
Atom 4.4436 0.2874 7.0572
Atom 0.6103 1.3402 1.3398
Atom 7.4518 2.6277 0.9734
Atom 0.0575 1.0246 6.8146
Atom 6.8938 0.9442 5.2346
Atom 4.2989 6.1018 2.6589
Atom 7.9678 1.4350 3.0936
Atom 1.0663 3.9341 1.6058
Atom 6.1958 6.3653 9.7835
Atom 4.8151 6.9804 8.3961
Atom 2.2727 2.9361 1.5052
Atom 3.2598 8.6052 2.0354
Atom 7.3126 5.7132 6.6750
Atom 4.2488 2.0294 8.3739
Atom 4.5030 2.9150 7.4372
Atom 7.0014 9.7771 3.0186
Atom 4.0184 5.5206 0.8572
Atom 5.1470 2.7772 9.8639
Atom 2.8555 4.1945 1.6167
Atom 0.4613 6.2386 3.5810
Atom 2.2589 9.2608 7.3718
Atom 4.4435 7.4718 6.3233
Atom 0.1174 4.2948 8.7636
Atom 8.3800 3.2945 9.9968
Atom 3.6226 7.6584 1.6573
Atom 3.3628 5.3772 3.5407
Atom 5.7951 6.8765 3.1843
Atom 9.2891 4.4527 6.6061
Atom 5.1929 0.1059 0.6580
Atom 5.0780 7.7225 2.3103
Atom 1.4752 5.1486 3.5182
Atom 6.3371 6.2849 0.9299
Atom 4.5665 1.8347 6.3514
Atom 8.6949 5.7835 7.1513
Atom 6.0083 7.7209 0.1726
Atom 9.1769 6.3272 2.9886
Atom 2.6702 5.2685 4.2787
Atom 9.2977 2.3965 9.2331
Atom 2.8208 2.3569 0.1383
Atom 8.8205 2.2947 6.8287
Atom 1.3435 5.0000 4.5194
Atom 7.9030 7.3978 1.1720
Atom 0.0738 3.1165 2.3161
Atom 5.3465 5.1061 7.5298
Atom 4.5913 9.6297 4.0324
Atom 2.2145 4.3554 9.5648
Atom 5.7987 5.3331 3.1790
Atom 3.8993 1.2511 1.9909
Atom 7.6155 8.3321 1.8657
Atom 0.1103 0.4038 2.9253
Atom 1.9320 2.6061 3.3974
Atom 5.9997 1.4225 9.6580
Atom 3.1632 8.6566 1.0987
Atom 4.4379 0.5513 2.6265
Atom 7.8068 8.6454 4.1364
Atom 0.1894 8.6643 6.9034
Atom 6.6687 8.6116 5.8119
Atom 5.4797 9.2371 0.2664
Atom 0.3873 3.7766 5.9118
Atom 1.6282 8.1360 5.4381
Atom 9.0783 9.7764 1.6330
Atom 6.4842 3.1154 3.4405
Atom 6.4618 6.8843 5.3593
Atom 5.8425 4.6489 0.0792
Atom 4.6756 1.7540 0.7569
Atom 0.2079 0.7685 4.4029
Atom 9.3156 1.7782 4.4875
Atom 1.0554 2.7020 5.0094
Atom 5.0112 3.4369 4.6175
Atom 2.5799 9.3834 9.1317
Atom 3.5809 9.7345 5.9422
Atom 9.9963 3.9518 4.4797
Atom 4.2511 2.4775 2.7709
Atom 8.9553 5.7148 7.4501
Atom 0.8401 8.5128 9.6415
Atom 4.4752 8.5054 3.7538
Atom 6.5341 2.2732 2.1076
Atom 2.5875 2.4028 2.3865
Atom 8.9076 2.4384 5.5371
Atom 0.6429 6.6796 6.7289
Atom 7.5929 5.0088 8.7035
Atom 6.8664 0.1801 6.3370
Atom 6.8376 2.7578 9.4873
Atom 0.0692 0.7641 2.0820
Atom 4.1346 7.7193 3.3538
Atom 4.2028 4.9134 8.7919
100
Step 60
Atom 6.3583 2.8111 6.7867
Atom 3.2340 6.3149 5.8581
Atom 8.6745 4.3026 0.8100
Atom 0.6367 6.6431 0.5667
Atom 6.4943 1.2227 3.3252
Atom 5.0936 0.7729 6.7045
Atom 8.7410 8.3178 8.2064
Atom 3.0425 0.0155 2.2360
Atom 4.1857 1.1923 5.4412
Atom 3.5566 6.2541 3.8422
Atom 2.9483 3.6354 8.5086
Atom 9.6420 0.0798 3.9995
Atom 8.3890 4.3578 1.9312
Atom 3.9340 9.3163 7.8997
Atom 4.4617 0.2824 7.0203
Atom 0.5316 1.3021 1.2769
Atom 7.4188 2.6740 0.9846
Atom 0.1208 1.0140 6.8738
Atom 6.9533 0.8898 5.2157
Atom 4.2881 6.1260 2.6788
Atom 8.0117 1.4239 3.1394
Atom 1.1207 3.9757 1.5941
Atom 6.1507 6.3902 9.7299
Atom 4.8659 6.9663 8.4676
Atom 2.2797 2.9186 1.4456
Atom 3.3583 8.5574 2.0089
Atom 7.2809 5.7403 6.6229
Atom 4.1900 2.0815 8.4129
Atom 4.5511 2.9508 7.4542
Atom 7.0190 9.7803 3.0829
Atom 3.9455 5.5302 0.8681
Atom 5.1996 2.8234 9.9207
Atom 2.7993 4.2016 1.6627
Atom 0.3247 6.2790 3.5879
Atom 2.2732 9.2595 7.3446
Atom 4.4423 7.5344 6.3348
Atom 0.1430 4.1910 8.7432
Atom 8.4110 3.3902 0.0907
Atom 3.6460 7.6564 1.6210
Atom 3.3683 5.3699 3.5585
Atom 5.8130 6.9587 3.2157
Atom 9.4027 4.4545 6.6105
Atom 5.0531 0.1046 0.6639
Atom 5.1361 7.7739 2.3577
Atom 1.4591 5.1332 3.5845
Atom 6.3602 6.3110 0.8803
Atom 4.6277 1.8283 6.3126
Atom 8.6414 5.8052 7.1697
Atom 6.0589 7.6929 0.0605
Atom 9.1624 6.3489 3.0222
Atom 2.6206 5.1714 4.2631
Atom 9.3113 2.4953 9.2018
Atom 2.7555 2.3484 0.1397
Atom 8.8175 2.2582 6.8268
Atom 1.3035 4.9881 4.4398
Atom 7.9171 7.3980 1.1621
Atom 0.0889 3.1826 2.3149
Atom 5.2909 5.1414 7.5619
Atom 4.6072 9.7706 4.0308
Atom 2.2766 4.3907 9.5810
Atom 5.8537 5.3295 3.0910
Atom 3.9040 1.2477 1.9899
Atom 7.6785 8.3219 1.8858
Atom 0.1232 0.4410 2.8720
Atom 2.0697 2.6738 3.4420
Atom 5.9448 1.4002 9.6648
Atom 3.1727 8.6564 1.1670
Atom 4.3724 0.5271 2.6339
Atom 7.7796 8.6862 4.0856
Atom 0.2233 8.6306 6.8735
Atom 6.6881 8.5965 5.7294
Atom 5.5033 9.1667 0.2411
Atom 0.4027 3.7152 5.9463
Atom 1.5803 8.2814 5.3982
Atom 9.0055 9.7307 1.5664
Atom 6.4879 3.0567 3.4059
Atom 6.4086 6.8858 5.3405
Atom 5.8751 4.6827 0.0669
Atom 4.6798 1.7613 0.7482
Atom 0.2362 0.7495 4.3620
Atom 9.3246 1.7365 4.4660
Atom 1.0713 2.6651 5.0101
Atom 5.0197 3.4174 4.6037
Atom 2.6012 9.3380 9.1483
Atom 3.5734 9.7087 6.0048
Atom 0.0155 4.0383 4.5028
Atom 4.2115 2.4018 2.7243
Atom 8.9056 5.7392 7.3196
Atom 0.7637 8.4971 9.7095
Atom 4.4836 8.5172 3.8591
Atom 6.4837 2.2012 2.0743
Atom 2.5120 2.3427 2.4471
Atom 8.9042 2.4285 5.5505
Atom 0.6125 6.7278 6.8239
Atom 7.5694 4.9277 8.7882
Atom 6.8176 0.2245 6.1726
Atom 6.8054 2.7194 9.5712
Atom 0.1269 0.7678 1.9659
Atom 4.0986 7.7344 3.4391
Atom 4.2341 4.8522 8.9112
100
Step 70
Atom 6.2389 2.8161 6.8468
Atom 3.2844 6.3139 5.8085
Atom 8.6794 4.3437 0.7947
Atom 0.6521 6.5945 0.6218
Atom 6.5280 1.2574 3.2944
Atom 5.0925 0.6594 6.6962
Atom 8.7769 8.2221 8.2242
Atom 3.1268 0.0295 2.2210
Atom 4.1902 1.2215 5.4411
Atom 3.4877 6.2526 3.8517
Atom 2.9901 3.6817 8.4836
Atom 9.6566 9.9774 4.0577
Atom 8.3320 4.2883 1.8657
Atom 3.9791 9.3802 7.9061
Atom 4.4800 0.2774 6.9834
Atom 0.4531 1.2644 1.2141
Atom 7.3857 2.7201 0.9961
Atom 0.1842 1.0036 6.9325
Atom 7.0129 0.8357 5.1968
Atom 4.2772 6.1503 2.6985
Atom 8.0560 1.4127 3.1850
Atom 1.1748 4.0173 1.5824
Atom 6.1054 6.4149 9.6764
Atom 4.9167 6.9525 8.5392
Atom 2.2867 2.9011 1.3861
Atom 3.4572 8.5095 1.9823
Atom 7.2491 5.7674 6.5709
Atom 4.1314 2.1337 8.4520
Atom 4.5994 2.9864 7.4712
Atom 7.0362 9.7835 3.1472
Atom 3.8730 5.5399 0.8792
Atom 5.2519 2.8696 9.9777
Atom 2.7432 4.2088 1.7092
Atom 0.1885 6.3193 3.5949
Atom 2.2875 9.2582 7.3175
Atom 4.4411 7.5973 6.3459
Atom 0.1684 4.0874 8.7227
Atom 8.4419 3.4859 0.1847
Atom 3.6697 7.6547 1.5851
Atom 3.3740 5.3626 3.5761
Atom 5.8308 7.0412 3.2469
Atom 9.5163 4.4564 6.6148
Atom 4.9131 0.1031 0.6701
Atom 5.1945 7.8257 2.4051
Atom 1.4430 5.1174 3.6506
Atom 6.3831 6.3372 0.8308
Atom 4.6890 1.8217 6.2738
Atom 8.5879 5.8268 7.1881
Atom 6.1093 7.6650 9.9488
Atom 9.1480 6.3704 3.0557
Atom 2.5709 5.0741 4.2472
Atom 9.3246 2.5943 9.1709
Atom 2.6902 2.3399 0.1414
Atom 8.8143 2.2216 6.8247
Atom 1.2635 4.9761 4.3600
Atom 7.9311 7.3983 1.1523
Atom 0.1042 3.2485 2.3139
Atom 5.2356 5.1766 7.5943
Atom 4.6234 9.9115 4.0289
Atom 2.3387 4.4260 9.5973
Atom 5.9082 5.3261 3.0030
Atom 3.9089 1.2442 1.9890
Atom 7.7409 8.3114 1.9059
Atom 0.1362 0.4785 2.8187
Atom 2.2072 2.7418 3.4867
Atom 5.8897 1.3781 9.6718
Atom 3.1826 8.6563 1.2355
Atom 4.3070 0.5028 2.6413
Atom 7.7521 8.7273 4.0348
Atom 0.2572 8.5969 6.8435
Atom 6.7070 8.5814 5.6468
Atom 5.5264 9.0960 0.2163
Atom 0.4181 3.6539 5.9807
Atom 1.5328 8.4268 5.3581
Atom 8.9325 9.6850 1.5002
Atom 6.4917 2.9978 3.3712
Atom 6.3552 6.8874 5.3215
Atom 5.9079 4.7163 0.0547
Atom 4.6839 1.7687 0.7396
Atom 0.2645 0.7307 4.3210
Atom 9.3336 1.6948 4.4444
Atom 1.0872 2.6282 5.0106
Atom 5.0282 3.3978 4.5899
Atom 2.6228 9.2928 9.1650
Atom 3.5658 9.6827 6.0672
Atom 0.0348 4.1248 4.5257
Atom 4.1719 2.3259 2.6776
Atom 8.8560 5.7637 7.1891
Atom 0.6872 8.4816 9.7774
Atom 4.4920 8.5289 3.9644
Atom 6.4329 2.1290 2.0404
Atom 2.4363 2.2824 2.5076
Atom 8.9005 2.4184 5.5635
Atom 0.5821 6.7758 6.9189
Atom 7.5458 4.8464 8.8729
Atom 6.7685 0.2693 6.0079
Atom 6.7731 2.6810 9.6552
Atom 0.1847 0.7718 1.8500
Atom 4.0625 7.7498 3.5244
Atom 4.2656 4.7909 9.0307
100
Step 80
Atom 6.1196 2.8210 6.9069
Atom 3.3347 6.3132 5.7587
Atom 8.6843 4.3848 0.7793
Atom 0.6674 6.5457 0.6771
Atom 6.5615 1.2920 3.2636
Atom 5.0913 0.5460 6.6879
Atom 8.8129 8.1261 8.2419
Atom 3.2114 0.0435 2.2059
Atom 4.1951 1.2508 5.4409
Atom 3.4190 6.2513 3.8610
Atom 3.0320 3.7280 8.4588
Atom 9.6710 9.8751 4.1158
Atom 8.2749 4.2188 1.8002
Atom 4.0245 9.4442 7.9126
Atom 4.4985 0.2724 6.9464
Atom 0.3750 1.2270 1.1514
Atom 7.3526 2.7662 1.0078
Atom 0.2476 0.9933 6.9908
Atom 7.0723 0.7818 5.1777
Atom 4.2660 6.1747 2.7183
Atom 8.1007 1.4014 3.2304
Atom 1.2287 4.0587 1.5708
Atom 6.0598 6.4395 9.6230
Atom 4.9675 6.9387 8.6111
Atom 2.2940 2.8835 1.3265
Atom 3.5564 8.4617 1.9557
Atom 7.2175 5.7943 6.5189
Atom 4.0729 2.1857 8.4911
Atom 4.6478 3.0215 7.4884
Atom 7.0531 9.7868 3.2114
Atom 3.8008 5.5498 0.8905
Atom 5.3039 2.9158 0.0348
Atom 2.6872 4.2160 1.7561
Atom 0.0524 6.3595 3.6018
Atom 2.3019 9.2569 7.2902
Atom 4.4401 7.6604 6.3566
Atom 0.1934 3.9839 8.7023
Atom 8.4728 3.5816 0.2789
Atom 3.6938 7.6532 1.5494
Atom 3.3801 5.3552 3.5934
Atom 5.8487 7.1240 3.2777
Atom 9.6299 4.4585 6.6191
Atom 4.7730 0.1016 0.6764
Atom 5.2531 7.8776 2.4522
Atom 1.4270 5.1012 3.7164
Atom 6.4058 6.3634 0.7814
Atom 4.7506 1.8149 6.2348
Atom 8.5344 5.8485 7.2066
Atom 6.1595 7.6371 9.8375
Atom 9.1337 6.3918 3.0891
Atom 2.5210 4.9766 4.2309
Atom 9.3377 2.6933 9.1402
Atom 2.6251 2.3314 0.1433
Atom 8.8108 2.1851 6.8224
Atom 1.2237 4.9640 4.2800
Atom 7.9449 7.3985 1.1424
Atom 0.1198 3.3141 2.3132
Atom 5.1804 5.2118 7.6270
Atom 4.6399 0.0525 4.0268
Atom 2.4009 4.4613 9.6137
Atom 5.9623 5.3229 2.9150
Atom 3.9140 1.2404 1.9884
Atom 7.8028 8.3007 1.9260
Atom 0.1493 0.5162 2.7655
Atom 2.3445 2.8100 3.5312
Atom 5.8346 1.3562 9.6789
Atom 3.1929 8.6564 1.3044
Atom 4.2416 0.4784 2.6486
Atom 7.7243 8.7686 3.9840
Atom 0.2910 8.5632 6.8134
Atom 6.7254 8.5664 5.5640
Atom 5.5490 9.0250 0.1920
Atom 0.4334 3.5925 6.0151
Atom 1.4854 8.5722 5.3178
Atom 8.8591 9.6393 1.4344
Atom 6.4956 2.9387 3.3361
Atom 6.3018 6.8892 5.3021
Atom 5.9408 4.7498 0.0424
Atom 4.6880 1.7761 0.7311
Atom 0.2925 0.7122 4.2801
Atom 9.3425 1.6534 4.4227
Atom 1.1030 2.5913 5.0110
Atom 5.0365 3.3783 4.5759
Atom 2.6447 9.2477 9.1818
Atom 3.5583 9.6565 6.1292
Atom 0.0542 4.2112 4.5484
Atom 4.1324 2.2500 2.6308
Atom 8.8065 5.7880 7.0587
Atom 0.6107 8.4662 9.8455
Atom 4.5003 8.5407 4.0698
Atom 6.3820 2.0565 2.0064
Atom 2.3602 2.2219 2.5681
Atom 8.8966 2.4081 5.5763
Atom 0.5516 6.8236 7.0138
Atom 7.5221 4.7650 8.9577
Atom 6.7192 0.3143 5.8429
Atom 6.7408 2.6426 9.7393
Atom 0.2426 0.7762 1.7343
Atom 4.0264 7.7652 3.6097
Atom 4.2974 4.7296 9.1503
100
Step 90
Atom 6.0003 2.8256 6.9670
Atom 3.3851 6.3126 5.7087
Atom 8.6892 4.4260 0.7639
Atom 0.6827 6.4966 0.7326
Atom 6.5946 1.3266 3.2327
Atom 5.0902 0.4327 6.6795
Atom 8.8487 8.0296 8.2595
Atom 3.2961 0.0573 2.1909
Atom 4.2001 1.2801 5.4405
Atom 3.3506 6.2503 3.8699
Atom 3.0741 3.7743 8.4342
Atom 9.6853 9.7729 4.1738
Atom 8.2176 4.1493 1.7348
Atom 4.0701 9.5084 7.9194
Atom 4.5171 0.2675 6.9094
Atom 0.2971 1.1900 1.0889
Atom 7.3194 2.8123 1.0196
Atom 0.3112 0.9832 7.0487
Atom 7.1316 0.7282 5.1586
Atom 4.2546 6.1992 2.7380
Atom 8.1457 1.3901 3.2757
Atom 1.2826 4.1001 1.5593
Atom 6.0141 6.4642 9.5698
Atom 5.0184 6.9251 8.6833
Atom 2.3013 2.8656 1.2669
Atom 3.6559 8.4139 1.9292
Atom 7.1859 5.8213 6.4672
Atom 4.0147 2.2377 8.5300
Atom 4.6963 3.0562 7.5058
Atom 7.0697 9.7901 3.2756
Atom 3.7289 5.5598 0.9019
Atom 5.3555 2.9620 0.0918
Atom 2.6314 4.2232 1.8033
Atom 9.9164 6.3996 3.6087
Atom 2.3163 9.2556 7.2629
Atom 4.4392 7.7238 6.3671
Atom 0.2183 3.8805 8.6818
Atom 8.5036 3.6773 0.3733
Atom 3.7182 7.6521 1.5138
Atom 3.3863 5.3476 3.6104
Atom 5.8665 7.2071 3.3082
Atom 9.7436 4.4608 6.6233
Atom 4.6329 0.1001 0.6827
Atom 5.3121 7.9298 2.4990
Atom 1.4108 5.0848 3.7822
Atom 6.4282 6.3897 0.7323
Atom 4.8123 1.8078 6.1957
Atom 8.4809 5.8702 7.2252
Atom 6.2096 7.6092 9.7265
Atom 9.1194 6.4129 3.1224
Atom 2.4711 4.8790 4.2142
Atom 9.3506 2.7923 9.1097
Atom 2.5600 2.3228 0.1456
Atom 8.8072 2.1486 6.8198
Atom 1.1842 4.9517 4.1998
Atom 7.9584 7.3986 1.1326
Atom 0.1357 3.3794 2.3128
Atom 5.1254 5.2468 7.6600
Atom 4.6569 0.1935 4.0247
Atom 2.4632 4.4966 9.6302
Atom 6.0160 5.3197 2.8269
Atom 3.9194 1.2367 1.9876
Atom 7.8643 8.2896 1.9461
Atom 0.1626 0.5540 2.7123
Atom 2.4815 2.8784 3.5756
Atom 5.7792 1.3343 9.6860
Atom 3.2036 8.6565 1.3734
Atom 4.1764 0.4541 2.6560
Atom 7.6962 8.8099 3.9331
Atom 0.3249 8.5294 6.7834
Atom 6.7433 8.5515 5.4809
Atom 5.5712 8.9536 0.1682
Atom 0.4487 3.5311 6.0495
Atom 1.4379 8.7176 5.2774
Atom 8.7856 9.5937 1.3690
Atom 6.4994 2.8794 3.3008
Atom 6.2481 6.8911 5.2826
Atom 5.9738 4.7833 0.0302
Atom 4.6920 1.7835 0.7227
Atom 0.3203 0.6938 4.2391
Atom 9.3512 1.6122 4.4013
Atom 1.1189 2.5545 5.0112
Atom 5.0448 3.3588 4.5619
Atom 2.6670 9.2027 9.1989
Atom 3.5510 9.6302 6.1911
Atom 0.0738 4.2975 4.5710
Atom 4.0931 2.1740 2.5840
Atom 8.7570 5.8124 6.9285
Atom 0.5341 8.4510 9.9137
Atom 4.5087 8.5523 4.1753
Atom 6.3308 1.9838 1.9723
Atom 2.2838 2.1613 2.6288
Atom 8.8926 2.3975 5.5888
Atom 0.5212 6.8714 7.1086
Atom 7.4983 4.6836 9.0423
Atom 6.6697 0.3595 5.6773
Atom 6.7084 2.6043 9.8232
Atom 0.3005 0.7809 1.6192
Atom 3.9903 7.7808 3.6951
Atom 4.3293 4.6681 9.2702
100
Step 100
Atom 5.8806 2.8300 7.0272
Atom 3.4356 6.3121 5.6584
Atom 8.6942 4.4673 0.7483
Atom 0.6980 6.4470 0.7884
Atom 6.6275 1.3611 3.2018
Atom 5.0893 0.3196 6.6709
Atom 8.8844 7.9330 8.2770
Atom 3.3810 0.0710 2.1758
Atom 4.2054 1.3093 5.4401
Atom 3.2824 6.2495 3.8784
Atom 3.1163 3.8206 8.4097
Atom 9.6994 9.6708 4.2316
Atom 8.1599 4.0798 1.6694
Atom 4.1159 9.5727 7.9264
Atom 4.5358 0.2626 6.8724
Atom 0.2196 1.1536 1.0265
Atom 7.2860 2.8584 1.0313
Atom 0.3749 0.9732 7.1063
Atom 7.1906 0.6748 5.1397
Atom 4.2430 6.2235 2.7579
Atom 8.1910 1.3787 3.3209
Atom 1.3364 4.1414 1.5480
Atom 5.9684 6.4890 9.5169
Atom 5.0694 6.9115 8.7558
Atom 2.3086 2.8476 1.2072
Atom 3.7557 8.3660 1.9026
Atom 7.1543 5.8482 6.4156
Atom 3.9569 2.2896 8.5687
Atom 4.7449 3.0906 7.5232
Atom 7.0859 9.7934 3.3399
Atom 3.6574 5.5697 0.9136
Atom 5.4069 3.0082 0.1488
Atom 2.5756 4.2303 1.8507
Atom 9.7805 6.4397 3.6155
Atom 2.3308 9.2544 7.2356
Atom 4.4385 7.7876 6.3774
Atom 0.2431 3.7771 8.6614
Atom 8.5344 3.7729 0.4680
Atom 3.7430 7.6513 1.4783
Atom 3.3928 5.3401 3.6271
Atom 5.8844 7.2906 3.3386
Atom 9.8573 4.4630 6.6274
Atom 4.4927 0.0986 0.6891
Atom 5.3714 7.9822 2.5456
Atom 1.3944 5.0682 3.8480
Atom 6.4503 6.4161 0.6832
Atom 4.8740 1.8004 6.1564
Atom 8.4275 5.8917 7.2437
Atom 6.2596 7.5812 9.6158
Atom 9.1051 6.4339 3.1555
Atom 2.4210 4.7811 4.1972
Atom 9.3633 2.8914 9.0795
Atom 2.4950 2.3143 0.1487
Atom 8.8035 2.1122 6.8168
Atom 1.1448 4.9390 4.1192
Atom 7.9719 7.3985 1.1229
Atom 0.1519 3.4444 2.3126
Atom 5.0704 5.2816 7.6932
Atom 4.6743 0.3343 4.0229
Atom 2.5254 4.5317 9.6466
Atom 6.0696 5.3163 2.7388
Atom 3.9249 1.2330 1.9868
Atom 7.9255 8.2783 1.9663
Atom 0.1760 0.5922 2.6592
Atom 2.6185 2.9470 3.6199
Atom 5.7238 1.3126 9.6932
Atom 3.2146 8.6567 1.4428
Atom 4.1114 0.4299 2.6635
Atom 7.6678 8.8514 3.8820
Atom 0.3587 8.4957 6.7532
Atom 6.7607 8.5366 5.3975
Atom 5.5929 8.8817 0.1448
Atom 0.4640 3.4697 6.0839
Atom 1.3906 8.8629 5.2369
Atom 8.7118 9.5483 1.3039
Atom 6.5031 2.8201 3.2654
Atom 6.1943 6.8932 5.2627
Atom 6.0069 4.8167 0.0181
Atom 4.6957 1.7910 0.7146
Atom 0.3481 0.6757 4.1980
Atom 9.3598 1.5712 4.3799
Atom 1.1347 2.5179 5.0111
Atom 5.0529 3.3392 4.5477
Atom 2.6896 9.1579 9.2162
Atom 3.5438 9.6040 6.2527
Atom 0.0934 4.3837 4.5933
Atom 4.0541 2.0981 2.5372
Atom 8.7075 5.8367 6.7984
Atom 0.4575 8.4360 9.9821
Atom 4.5172 8.5638 4.2808
Atom 6.2793 1.9107 1.9384
Atom 2.2072 2.1003 2.6894
Atom 8.8886 2.3867 5.6009
Atom 0.4909 6.9190 7.2032
Atom 7.4745 4.6022 9.1270
Atom 6.6200 0.4049 5.5111
Atom 6.6761 2.5662 9.9072
Atom 0.3585 0.7860 1.5046
Atom 3.9541 7.7965 3.7806
Atom 4.3614 4.6062 9.3902
100
Step 110
Atom 5.7608 2.8341 7.0874
Atom 3.4863 6.3118 5.6080
Atom 8.6991 4.5087 0.7328
Atom 0.7133 6.3971 0.8445
Atom 6.6600 1.3955 3.1707
Atom 5.0884 0.2065 6.6621
Atom 8.9198 7.8361 8.2947
Atom 3.4661 0.0845 2.1606
Atom 4.2110 1.3385 5.4394
Atom 3.2143 6.2489 3.8867
Atom 3.1587 3.8670 8.3854
Atom 9.7133 9.5688 4.2895
Atom 8.1019 4.0102 1.6039
Atom 4.1620 9.6372 7.9336
Atom 4.5546 0.2577 6.8353
Atom 0.1423 1.1177 0.9643
Atom 7.2523 2.9044 1.0429
Atom 0.4388 0.9634 7.1634
Atom 7.2492 0.6215 5.1208
Atom 4.2313 6.2478 2.7777
Atom 8.2363 1.3672 3.3659
Atom 1.3903 4.1827 1.5368
Atom 5.9227 6.5139 9.4643
Atom 5.1202 6.8979 8.8283
Atom 2.3161 2.8294 1.1475
Atom 3.8558 8.3182 1.8761
Atom 7.1227 5.8751 6.3642
Atom 3.8993 2.3413 8.6072
Atom 4.7936 3.1246 7.5408
Atom 7.1018 9.7966 3.4040
Atom 3.5861 5.5797 0.9253
Atom 5.4581 3.0545 0.2058
Atom 2.5199 4.2371 1.8981
Atom 9.6446 6.4799 3.6222
Atom 2.3454 9.2532 7.2081
Atom 4.4379 7.8516 6.3878
Atom 0.2680 3.6739 8.6411
Atom 8.5652 3.8686 0.5627
Atom 3.7681 7.6508 1.4429
Atom 3.3996 5.3327 3.6436
Atom 5.9023 7.3744 3.3687
Atom 9.9710 4.4651 6.6314
Atom 4.3525 0.0971 0.6956
Atom 5.4309 8.0350 2.5918
Atom 1.3779 5.0513 3.9137
Atom 6.4723 6.4425 0.6344
Atom 4.9356 1.7926 6.1171
Atom 8.3739 5.9132 7.2624