100
Step 0
Atom 0.9158 3.4866 1.3252
Atom 4.9508 1.0639 5.1250
Atom 4.7137 9.7029 7.6960
Atom 6.6610 2.1471 2.0146
Atom 5.6226 0.0246 1.0104
Atom 5.1678 4.2172 8.7911
Atom 2.5808 0.7946 4.2952
Atom 6.6292 4.3583 4.2708
Atom 4.9807 8.1613 3.9960
Atom 6.7696 6.6111 6.7203
Atom 6.1270 0.2370 9.5063
Atom 2.6599 5.7048 3.1308
Atom 4.0855 2.4571 6.4494
Atom 2.3018 4.4859 3.8237
Atom 4.7971 5.3032 6.2469
Atom 0.6361 3.6218 8.1142
Atom 6.2968 3.8084 3.3966
Atom 2.0117 5.0637 7.9111
Atom 2.4925 2.2855 6.6968
Atom 1.3362 4.9816 3.2661
Atom 5.4247 2.3003 6.6628
Atom 7.4458 7.0700 4.5673
Atom 2.1325 3.6598 6.2465
Atom 6.3000 8.6763 5.0849
Atom 2.9667 0.8583 0.3341
Atom 8.9486 5.3587 9.7816
Atom 3.8504 9.2973 8.8184
Atom 7.4211 9.2121 0.6993
Atom 2.8836 2.4955 7.6214
Atom 1.7039 6.4453 4.3368
Atom 6.7963 6.5293 1.2803
Atom 5.8407 0.8614 0.2677
Atom 2.4414 9.8051 5.3329
Atom 6.6118 2.0773 7.0374
Atom 2.5147 0.0397 0.2249
Atom 1.9900 1.6755 6.4245
Atom 7.9952 2.5486 8.4861
Atom 4.5681 0.6959 2.2407
Atom 3.0853 2.6308 3.3395
Atom 4.9301 7.4237 0.1972
Atom 8.0594 7.3024 6.6180
Atom 3.7324 8.5443 8.4874
Atom 4.9413 3.0065 4.5593
Atom 6.5504 7.3856 8.5363
Atom 3.6815 2.6317 8.4391
Atom 6.6224 5.2745 3.3760
Atom 7.0669 0.2637 2.2337
Atom 0.3490 6.7604 2.0787
Atom 6.4080 4.3454 8.2675
Atom 8.6790 5.6402 8.1059
Atom 8.6472 6.6784 9.1230
Atom 9.9977 8.6766 9.2698
Atom 7.8419 3.1315 1.5089
Atom 3.4399 3.2961 0.1632
Atom 9.9011 3.4877 3.9778
Atom 9.2117 6.8180 8.4700
Atom 4.1842 5.4630 3.8706
Atom 1.1707 1.9101 0.7160
Atom 6.1911 9.4230 3.6901
Atom 3.9123 2.2351 3.8051
Atom 2.0354 8.3732 5.9380
Atom 5.5607 5.7480 5.0132
Atom 3.8214 5.5890 7.8264
Atom 8.3966 3.1832 4.7019
Atom 5.8729 9.6405 7.2679
Atom 8.5371 8.4358 0.6770
Atom 3.2276 4.8081 2.6104
Atom 8.0565 4.5982 3.6977
Atom 7.0787 8.8801 5.3187
Atom 8.9093 1.8446 2.7981
Atom 9.7680 1.2590 8.2802
Atom 9.1831 0.0611 8.6377
Atom 8.3059 6.5141 4.2658
Atom 4.9010 8.7663 3.0043
Atom 5.7767 2.9727 4.1303
Atom 3.3984 0.2368 2.2357
Atom 3.8367 9.2954 2.3705
Atom 0.0188 6.2155 5.1800
Atom 2.2007 6.8393 7.3235
Atom 9.8877 6.6218 1.8772
Atom 8.8536 8.5104 4.8933
Atom 1.9797 0.9069 0.1835
Atom 9.2387 4.9963 0.2702
Atom 1.9586 9.3208 1.9737
Atom 2.0181 2.4975 1.7796
Atom 7.5518 2.6148 2.8533
Atom 6.8157 8.9069 9.2056
Atom 1.9238 0.1824 9.2754
Atom 5.9434 6.1454 9.6126
Atom 1.8708 5.8363 6.6076
Atom 7.9993 0.5046 1.2721
Atom 7.1978 5.7782 9.2170
Atom 1.6125 4.9808 1.3089
Atom 1.4164 8.9318 5.4120
Atom 7.0102 0.6592 9.6399
Atom 9.4620 1.8706 8.7098
Atom 8.2595 0.1119 8.8796
Atom 1.3045 4.5140 5.6741
Atom 8.0540 2.4877 0.8082
Atom 0.2745 5.1178 2.3707
100
Step 10
Atom 0.9347 3.4748 1.2888
Atom 4.9306 1.1370 5.0964
Atom 4.7552 9.6791 7.7672
Atom 6.5454 2.1124 1.9414
Atom 5.5990 9.9883 1.1022
Atom 5.1679 4.2868 8.8037
Atom 2.5921 0.8100 4.3364
Atom 6.6399 4.4015 4.3387
Atom 4.9759 8.2058 4.0316
Atom 6.7887 6.5542 6.7203
Atom 6.1506 0.1535 9.4375
Atom 2.6509 5.6573 3.0712
Atom 4.1121 2.5416 6.4378
Atom 2.2072 4.4826 3.7444
Atom 4.8173 5.3864 6.2747
Atom 0.5926 3.5312 8.1716
Atom 6.2262 3.8518 3.4556
Atom 1.9274 5.0612 7.8332
Atom 2.5122 2.3453 6.6803
Atom 1.4046 5.0101 3.2703
Atom 5.4866 2.4003 6.7041
Atom 7.3304 7.0644 4.6181
Atom 2.0888 3.6335 6.2141
Atom 6.3559 8.7265 5.0643
Atom 2.9880 0.7851 0.3387
Atom 8.9110 5.3426 9.8381
Atom 3.8467 9.2620 8.8297
Atom 7.4606 9.2719 0.5967
Atom 2.8580 2.4710 7.5694
Atom 1.7801 6.4416 4.3144
Atom 6.6914 6.4858 1.3281
Atom 5.8335 0.8463 0.2149
Atom 2.4431 9.8110 5.4022
Atom 6.6195 2.1425 7.0079
Atom 2.6176 0.0543 0.3623
Atom 2.0018 1.5798 6.3898
Atom 7.9778 2.5292 8.5637
Atom 4.4628 0.7105 2.2487
Atom 3.0497 2.6000 3.3274
Atom 4.9092 7.4109 0.1479
Atom 8.0882 7.3605 6.6603
Atom 3.7212 8.5906 8.5972
Atom 4.8759 2.9817 4.5816
Atom 6.5381 7.4317 8.5451
Atom 3.7355 2.5623 8.4266
Atom 6.6317 5.2213 3.4176
Atom 7.1103 0.2615 2.2192
Atom 0.3036 6.8350 2.0754
Atom 6.4421 4.3621 8.2899
Atom 8.7807 5.6666 8.1197
Atom 8.6196 6.7068 9.0873
Atom 0.0297 8.7057 9.2717
Atom 7.8851 3.1288 1.4915
Atom 3.4300 3.3118 0.1631
Atom 9.9211 3.4384 3.9315
Atom 9.1824 6.8736 8.4280
Atom 4.2110 5.5018 3.8515
Atom 1.1944 1.9816 0.6501
Atom 6.2171 9.3419 3.6153
Atom 3.9107 2.1839 3.8126
Atom 2.0993 8.3128 5.9885
Atom 5.4953 5.7393 5.0282
Atom 3.7723 5.5967 7.9408
Atom 8.4306 3.2128 4.6840
Atom 5.8370 9.7187 7.2627
Atom 8.5387 8.4695 0.5728
Atom 3.2273 4.8794 2.6037
Atom 8.1241 4.7224 3.8072
Atom 7.0791 8.8403 5.1829
Atom 8.9597 1.8115 2.8310
Atom 9.8071 1.2820 8.2831
Atom 9.1689 0.0032 8.7477
Atom 8.3538 6.4828 4.2191
Atom 4.8703 8.6723 2.9748
Atom 5.7172 3.0246 4.0918
Atom 3.3848 0.2751 2.2397
Atom 3.8988 9.2418 2.4293
Atom 0.0583 6.2081 5.2656
Atom 2.1457 6.7969 7.2705
Atom 9.9354 6.5534 1.7772
Atom 8.8880 8.4794 4.7938
Atom 2.0303 0.8128 0.1394
Atom 9.2434 5.0638 0.2854
Atom 1.9689 9.3319 1.9538
Atom 1.9821 2.5526 1.7539
Atom 7.5348 2.6523 2.8635
Atom 6.8521 8.9126 9.1478
Atom 1.9677 0.2097 9.2908
Atom 5.9536 6.1663 9.6243
Atom 1.8078 5.8332 6.5822
Atom 7.9689 0.4822 1.2997
Atom 7.2061 5.8201 9.2063
Atom 1.5897 4.9664 1.2653
Atom 1.4119 8.9569 5.4645
Atom 6.9572 0.5972 9.6621
Atom 9.4212 1.8818 8.7019
Atom 8.2377 0.0673 8.9440
Atom 1.3438 4.4213 5.7323
Atom 8.0602 2.4518 0.8077
Atom 0.2933 5.0184 2.3300
100
Step 20
Atom 0.9534 3.4632 1.2526
Atom 4.9105 1.2098 5.0677
Atom 4.7968 9.6554 7.8387
Atom 6.4295 2.0774 1.8682
Atom 5.5751 9.9519 1.1939
Atom 5.1682 4.3564 8.8160
Atom 2.6037 0.8255 4.3775
Atom 6.6504 4.4449 4.4066
Atom 4.9712 8.2501 4.0672
Atom 6.8080 6.4972 6.7206
Atom 6.1742 0.0699 9.3689
Atom 2.6415 5.6097 3.0117
Atom 4.1389 2.6262 6.4260
Atom 2.1124 4.4789 3.6651
Atom 4.8375 5.4692 6.3023
Atom 0.5493 3.4406 8.2290
Atom 6.1555 3.8952 3.5147
Atom 1.8432 5.0585 7.7552
Atom 2.5319 2.4051 6.6637
Atom 1.4730 5.0385 3.2746
Atom 5.5483 2.5004 6.7456
Atom 7.2148 7.0585 4.6687
Atom 2.0453 3.6072 6.1814
Atom 6.4118 8.7765 5.0437
Atom 3.0098 0.7121 0.3432
Atom 8.8734 5.3265 9.8950
Atom 3.8437 9.2270 8.8411
Atom 7.5002 9.3316 0.4939
Atom 2.8324 2.4466 7.5177
Atom 1.8564 6.4379 4.2920
Atom 6.5869 6.4424 1.3758
Atom 5.8262 0.8311 0.1620
Atom 2.4451 9.8171 5.4716
Atom 6.6268 2.2076 6.9785
Atom 2.7209 0.0689 0.4998
Atom 2.0137 1.4841 6.3553
Atom 7.9604 2.5097 8.6416
Atom 4.3576 0.7253 2.2567
Atom 3.0142 2.5690 3.3153
Atom 4.8886 7.3985 0.0985
Atom 8.1170 7.4185 6.7026
Atom 3.7099 8.6371 8.7071
Atom 4.8104 2.9572 4.6037
Atom 6.5260 7.4780 8.5540
Atom 3.7894 2.4926 8.4143
Atom 6.6411 5.1678 3.4592
Atom 7.1535 0.2595 2.2045
Atom 0.2582 6.9095 2.0722
Atom 6.4762 4.3789 8.3120
Atom 8.8822 5.6930 8.1334
Atom 8.5916 6.7354 9.0515
Atom 0.0616 8.7351 9.2736
Atom 7.9285 3.1263 1.4740
Atom 3.4197 3.3272 0.1631
Atom 9.9412 3.3892 3.8851
Atom 9.1528 6.9292 8.3862
Atom 4.2379 5.5404 3.8325
Atom 1.2180 2.0533 0.5841
Atom 6.2428 9.2610 3.5401
Atom 3.9091 2.1329 3.8200
Atom 2.1632 8.2520 6.0389
Atom 5.4298 5.7304 5.0431
Atom 3.7235 5.6043 8.0553
Atom 8.4643 3.2426 4.6659
Atom 5.8012 9.7970 7.2576
Atom 8.5401 8.5029 0.4685
Atom 3.2269 4.9504 2.5972
Atom 8.1918 4.8469 3.9166
Atom 7.0794 8.8003 5.0471
Atom 9.0100 1.7785 2.8636
Atom 9.8466 1.3048 8.2862
Atom 9.1542 9.9451 8.8582
Atom 8.4016 6.4514 4.1726
Atom 4.8398 8.5785 2.9455
Atom 5.6578 3.0766 4.0534
Atom 3.3713 0.3139 2.2437
Atom 3.9610 9.1885 2.4880
Atom 0.0978 6.2009 5.3510
Atom 2.0906 6.7546 7.2174
Atom 9.9829 6.4849 1.6773
Atom 8.9223 8.4482 4.6944
Atom 2.0812 0.7189 0.0953
Atom 9.2482 5.1311 0.3007
Atom 1.9792 9.3430 1.9339
Atom 1.9462 2.6078 1.7285
Atom 7.5177 2.6896 2.8737
Atom 6.8884 8.9182 9.0901
Atom 2.0115 0.2371 9.3061
Atom 5.9640 6.1874 9.6358
Atom 1.7447 5.8301 6.5567
Atom 7.9384 0.4599 1.3272
Atom 7.2142 5.8619 9.1955
Atom 1.5668 4.9516 1.2218
Atom 1.4073 8.9819 5.5171
Atom 6.9043 0.5351 9.6843
Atom 9.3803 1.8930 8.6944
Atom 8.2157 0.0229 9.0083
Atom 1.3832 4.3285 5.7903
Atom 8.0666 2.4159 0.8069
Atom 0.3121 4.9189 2.2895
100
Step 30
Atom 0.9720 3.4519 1.2166
Atom 4.8903 1.2824 5.0389
Atom 4.8387 9.6320 7.9104
Atom 6.3136 2.0422 1.7953
Atom 5.5512 9.9153 1.2854
Atom 5.1686 4.4261 8.8281
Atom 2.6155 0.8411 4.4185
Atom 6.6608 4.4887 4.4746
Atom 4.9666 8.2942 4.1029
Atom 6.8275 6.4402 6.7212
Atom 6.1977 9.9862 9.3005
Atom 2.6318 5.5619 2.9521
Atom 4.1659 2.7109 6.4140
Atom 2.0175 4.4751 3.5857
Atom 4.8577 5.5517 6.3298
Atom 0.5062 3.3500 8.2862
Atom 6.0846 3.9387 3.5739
Atom 1.7590 5.0556 7.6772
Atom 2.5516 2.4650 6.6470
Atom 1.5411 5.0668 3.2790
Atom 5.6100 2.6006 6.7871
Atom 7.0990 7.0525 4.7191
Atom 2.0018 3.5811 6.1486
Atom 6.4678 8.8265 5.0232
Atom 3.0318 0.6393 0.3476
Atom 8.8358 5.3102 9.9521
Atom 3.8410 9.1922 8.8527
Atom 7.5397 9.3911 0.3910
Atom 2.8066 2.4223 7.4661
Atom 1.9328 6.4340 4.2697
Atom 6.4826 6.3992 1.4235
Atom 5.8187 0.8158 0.1091
Atom 2.4474 9.8234 5.5410
Atom 6.6337 2.2726 6.9491
Atom 2.8245 0.0836 0.6374
Atom 2.0256 1.3883 6.3209
Atom 7.9430 2.4899 8.7197
Atom 4.2526 0.7402 2.2648
Atom 2.9789 2.5381 3.3031
Atom 4.8682 7.3864 0.0491
Atom 8.1458 7.4764 6.7449
Atom 3.6989 8.6839 8.8170
Atom 4.7448 2.9329 4.6259
Atom 6.5139 7.5248 8.5630
Atom 3.8431 2.4226 8.4019
Atom 6.6506 5.1141 3.5008
Atom 7.1964 0.2577 2.1893
Atom 0.2128 6.9837 2.0690
Atom 6.5104 4.3957 8.3337
Atom 8.9836 5.7193 8.1470
Atom 8.5633 6.7642 9.0157
Atom 0.0935 8.7646 9.2756
Atom 7.9719 3.1238 1.4566
Atom 3.4089 3.3422 0.1632
Atom 9.9615 3.3402 3.8385
Atom 9.1231 6.9849 8.3446
Atom 4.2650 5.5787 3.8139
Atom 1.2416 2.1250 0.5179
Atom 6.2684 9.1802 3.4647
Atom 3.9075 2.0820 3.8276
Atom 2.2271 8.1910 6.0892
Atom 5.3644 5.7213 5.0578
Atom 3.6748 5.6118 8.1697
Atom 8.4977 3.2726 4.6477
Atom 5.7654 9.8754 7.2527
Atom 8.5412 8.5361 0.3642
Atom 3.2264 5.0211 2.5907
Atom 8.2597 4.9714 4.0258
Atom 7.0795 8.7603 4.9115
Atom 9.0602 1.7456 2.8961
Atom 9.8865 1.3275 8.2897
Atom 9.1394 9.8871 8.9688
Atom 8.4492 6.4199 4.1261
Atom 4.8095 8.4846 2.9162
Atom 5.5982 3.1287 4.0151
Atom 3.3577 0.3530 2.2475
Atom 4.0233 9.1354 2.5466
Atom 0.1371 6.1936 5.4364
Atom 2.0354 6.7122 7.1641
Atom 0.0304 6.4163 1.5775
Atom 8.9567 8.4169 4.5950
Atom 2.1323 0.6250 0.0511
Atom 9.2532 5.1982 0.3162
Atom 1.9897 9.3543 1.9139
Atom 1.9106 2.6628 1.7033
Atom 7.5007 2.7268 2.8839
Atom 6.9245 8.9236 9.0325
Atom 2.0551 0.2649 9.3213
Atom 5.9746 6.2087 9.6471
Atom 1.6818 5.8272 6.5312
Atom 7.9078 0.4377 1.3543
Atom 7.2220 5.9039 9.1845
Atom 1.5438 4.9366 1.1783
Atom 1.4026 9.0067 5.5697
Atom 6.8512 0.4730 9.7067
Atom 9.3395 1.9042 8.6874
Atom 8.1934 9.9786 9.0727
Atom 1.4226 4.2356 5.8480
Atom 8.0731 2.3797 0.8058
Atom 0.3309 4.8193 2.2492
100
Step 40
Atom 0.9906 3.4407 1.1808
Atom 4.8702 1.3547 5.0101
Atom 4.8808 9.6087 7.9824
Atom 6.1975 2.0072 1.7225
Atom 5.5270 9.8785 1.3766
Atom 5.1693 4.4958 8.8399
Atom 2.6276 0.8568 4.4593
Atom 6.6712 4.5326 4.5427
Atom 4.9620 8.3381 4.1387
Atom 6.8473 6.3830 6.7222
Atom 6.2212 9.9022 9.2322
Atom 2.6218 5.5140 2.8924
Atom 4.1931 2.7956 6.4017
Atom 1.9227 4.4710 3.5063
Atom 4.8779 5.6338 6.3571
Atom 0.4635 3.2594 8.3434
Atom 6.0138 3.9820 3.6330
Atom 1.6747 5.0525 7.5992
Atom 2.5715 2.5247 6.6301
Atom 1.6091 5.0951 3.2833
Atom 5.6715 2.7010 6.8287
Atom 6.9829 7.0464 4.7693
Atom 1.9584 3.5550 6.1155
Atom 6.5239 8.8763 5.0028
Atom 3.0543 0.5667 0.3520
Atom 8.7982 5.2937 0.0095
Atom 3.8389 9.1578 8.8644
Atom 7.5793 9.4506 0.2880
Atom 2.7808 2.3981 7.4147
Atom 2.0094 6.4301 4.2474
Atom 6.3784 6.3561 1.4712
Atom 5.8110 0.8004 0.0563
Atom 2.4500 9.8299 5.6103
Atom 6.6401 2.3376 6.9197
Atom 2.9282 0.0987 0.7749
Atom 2.0377 1.2927 6.2866
Atom 7.9257 2.4699 8.7980
Atom 4.1477 0.7550 2.2730
Atom 2.9437 2.5075 3.2910
Atom 4.8479 7.3746 9.9996
Atom 8.1745 7.5344 6.7871
Atom 3.6880 8.7310 8.9271
Atom 4.6791 2.9088 4.6480
Atom 6.5020 7.5720 8.5722
Atom 3.8966 2.3522 8.3897
Atom 6.6602 5.0601 3.5423
Atom 7.2391 0.2561 2.1737
Atom 0.1675 7.0574 2.0659
Atom 6.5446 4.4125 8.3551
Atom 9.0849 5.7456 8.1605
Atom 8.5348 6.7933 8.9801
Atom 0.1251 8.7940 9.2777
Atom 8.0155 3.1214 1.4390
Atom 3.3976 3.3570 0.1635
Atom 9.9820 3.2912 3.7918
Atom 9.0931 7.0407 8.3032
Atom 4.2920 5.6169 3.7955
Atom 1.2651 2.1968 0.4513
Atom 6.2939 9.0994 3.3892
Atom 3.9058 2.0314 3.8354
Atom 2.2911 8.1298 6.1394
Atom 5.2990 5.7122 5.0723
Atom 3.6262 5.6193 8.2842
Atom 8.5308 3.3028 4.6294
Atom 5.7296 9.9540 7.2478
Atom 8.5421 8.5692 0.2598
Atom 3.2257 5.0915 2.5845
Atom 8.3276 5.0960 4.1349
Atom 7.0795 8.7201 4.7759
Atom 9.1105 1.7129 2.9284
Atom 9.9267 1.3500 8.2934
Atom 9.1245 9.8290 9.0796
Atom 8.4968 6.3883 4.0796
Atom 4.7794 8.3908 2.8869
Atom 5.5385 3.1808 3.9769
Atom 3.3441 0.3924 2.2511
Atom 4.0855 9.0825 2.6051
Atom 0.1763 6.1865 5.5218
Atom 1.9801 6.6698 7.1105
Atom 0.0780 6.3477 1.4778
Atom 8.9910 8.3855 4.4957
Atom 2.1836 0.5313 0.0070
Atom 9.2582 5.2651 0.3318
Atom 2.0004 9.3657 1.8939
Atom 1.8751 2.7177 1.6783
Atom 7.4836 2.7642 2.8942
Atom 6.9606 8.9286 8.9751
Atom 2.0987 0.2929 9.3365
Atom 5.9854 6.2301 9.6582
Atom 1.6190 5.8241 6.5058
Atom 7.8770 0.4157 1.3813
Atom 7.2297 5.9461 9.1732
Atom 1.5208 4.9216 1.1349
Atom 1.3978 9.0314 5.6224
Atom 6.7983 0.4110 9.7293
Atom 9.2986 1.9153 8.6808
Atom 8.1708 9.9345 9.1372
Atom 1.4622 4.1427 5.9056
Atom 8.0796 2.3430 0.8044
Atom 0.3499 4.7196 2.2090
100
Step 50
Atom 1.0092 3.4298 1.1451
Atom 4.8499 1.4268 4.9813
Atom 4.9230 9.5856 8.0547
Atom 6.0812 1.9720 1.6499
Atom 5.5025 9.8417 1.4676
Atom 5.1702 4.5655 8.8514
Atom 2.6400 0.8727 4.5001
Atom 6.6814 4.5766 4.6108
Atom 4.9573 8.3820 4.1744
Atom 6.8674 6.3257 6.7236
Atom 6.2445 9.8182 9.1641
Atom 2.6115 5.4658 2.8328
Atom 4.2203 2.8803 6.3892
Atom 1.8280 4.4668 3.4268
Atom 4.8982 5.7157 6.3843
Atom 0.4211 3.1689 8.4006
Atom 5.9432 4.0251 3.6920
Atom 1.5904 5.0493 7.5212
Atom 2.5914 2.5845 6.6131
Atom 1.6769 5.1232 3.2877
Atom 5.7330 2.8015 6.8704
Atom 6.8666 7.0402 4.8193
Atom 1.9150 3.5290 6.0822
Atom 6.5799 8.9262 4.9826
Atom 3.0771 0.4944 0.3564
Atom 8.7605 5.2771 0.0670
Atom 3.8372 9.1236 8.8761
Atom 7.6188 9.5099 0.1848
Atom 2.7547 2.3741 7.3634
Atom 2.0859 6.4263 4.2252
Atom 6.2744 6.3130 1.5188
Atom 5.8032 0.7848 0.0033
Atom 2.4528 9.8366 5.6797
Atom 6.6460 2.4027 6.8904
Atom 3.0320 0.1140 0.9125
Atom 2.0500 1.1972 6.2524
Atom 7.9082 2.4493 8.8768
Atom 4.0427 0.7697 2.2812
Atom 2.9085 2.4773 3.2789
Atom 4.8279 7.3631 9.9501
Atom 8.2032 7.5926 6.8289
Atom 3.6773 8.7782 9.0372
Atom 4.6133 2.8850 4.6702
Atom 6.4902 7.6197 8.5815
Atom 3.9502 2.2815 8.3776
Atom 6.6698 5.0058 3.5839
Atom 7.2817 0.2548 2.1577
Atom 0.1222 7.1307 2.0628
Atom 6.5789 4.4294 8.3762
Atom 9.1863 5.7718 8.1738
Atom 8.5062 6.8228 8.9445
Atom 0.1566 8.8236 9.2798
Atom 8.0593 3.1191 1.4213
Atom 3.3861 3.3716 0.1639
Atom 0.0026 3.2425 3.7450
Atom 9.0628 7.0966 8.2620
Atom 4.3190 5.6548 3.7774
Atom 1.2884 2.2686 0.3846
Atom 6.3195 9.0187 3.3136
Atom 3.9041 1.9808 3.8432
Atom 2.3551 8.0685 6.1896
Atom 5.2335 5.7030 5.0868
Atom 3.5776 5.6268 8.3986
Atom 8.5637 3.3332 4.6109
Atom 5.6937 0.0327 7.2430
Atom 8.5427 8.6022 0.1552
Atom 3.2249 5.1616 2.5783
Atom 8.3956 5.2204 4.2438
Atom 7.0795 8.6798 4.6405
Atom 9.1609 1.6802 2.9605
Atom 9.9674 1.3724 8.2974
Atom 9.1094 9.7710 9.1906
Atom 8.5442 6.3566 4.0330
Atom 4.7493 8.2972 2.8576
Atom 5.4786 3.2329 3.9387
Atom 3.3306 0.4317 2.2544
Atom 4.1478 9.0298 2.6635
Atom 0.2154 6.1793 5.6072
Atom 1.9247 6.6274 7.0567
Atom 0.1255 6.2789 1.3782
Atom 9.0251 8.3539 4.3966
Atom 2.2351 0.4376 9.9629
Atom 9.2633 5.3319 0.3474
Atom 2.0112 9.3773 1.8738
Atom 1.8396 2.7726 1.6536
Atom 7.4665 2.8018 2.9047
Atom 6.9967 8.9333 8.9177
Atom 2.1422 0.3212 9.3516
Atom 5.9965 6.2517 9.6691
Atom 1.5563 5.8209 6.4804
Atom 7.8462 0.3938 1.4079
Atom 7.2370 5.9883 9.1617
Atom 1.4977 4.9064 1.0914
Atom 1.3930 9.0559 5.6750
Atom 6.7454 0.3492 9.7519
Atom 9.2578 1.9264 8.6745
Atom 8.1479 9.8906 9.2017
Atom 1.5018 4.0497 5.9629
Atom 8.0860 2.3060 0.8029
Atom 0.3688 4.6198 2.1690
100
Step 60
Atom 1.0277 3.4190 1.1097
Atom 4.8295 1.4989 4.9525
Atom 4.9653 9.5625 8.1274
Atom 5.9649 1.9368 1.5774
Atom 5.4778 9.8048 1.5581
Atom 5.1710 4.6350 8.8627
Atom 2.6525 0.8888 4.5409
Atom 6.6913 4.6207 4.6789
Atom 4.9525 8.4258 4.2101
Atom 6.8877 6.2682 6.7252
Atom 6.2678 9.7340 9.0963
Atom 2.6012 5.4175 2.7731
Atom 4.2477 2.9650 6.3764
Atom 1.7334 4.4624 3.3476
Atom 4.9185 5.7973 6.4112
Atom 0.3788 3.0784 8.4577
Atom 5.8726 4.0682 3.7511
Atom 1.5058 5.0461 7.4430
Atom 2.6114 2.6441 6.5959
Atom 1.7445 5.1510 3.2921
Atom 5.7942 2.9020 6.9120
Atom 6.7502 7.0341 4.8692
Atom 1.8717 3.5031 6.0487
Atom 6.6360 8.9759 4.9624
Atom 3.1003 0.4224 0.3607
Atom 8.7229 5.2603 0.1246
Atom 3.8362 9.0897 8.8877
Atom 7.6583 9.5692 0.0816
Atom 2.7286 2.3501 7.3122
Atom 2.1624 6.4225 4.2034
Atom 6.1706 6.2700 1.5664
Atom 5.7954 0.7690 9.9505
Atom 2.4559 9.8435 5.7491
Atom 6.6514 2.4678 6.8611
Atom 3.1361 0.1295 1.0501
Atom 2.0626 1.1019 6.2183
Atom 7.8907 2.4284 8.9559
Atom 3.9378 0.7842 2.2895
Atom 2.8734 2.4474 3.2668
Atom 4.8081 7.3518 9.9005
Atom 8.2317 7.6509 6.8706
Atom 3.6669 8.8256 9.1473
Atom 4.5475 2.8615 4.6925
Atom 6.4786 7.6678 8.5909
Atom 4.0038 2.2106 8.3657
Atom 6.6795 4.9513 3.6256
Atom 7.3241 0.2537 2.1414
Atom 0.0769 7.2036 2.0597
Atom 6.6133 4.4465 8.3970
Atom 9.2878 5.7979 8.1868
Atom 8.4773 6.8526 8.9090
Atom 0.1879 8.8532 9.2820
Atom 8.1034 3.1170 1.4034
Atom 3.3743 3.3864 0.1643
Atom 0.0234 3.1942 3.6979
Atom 9.0323 7.1526 8.2211
Atom 4.3462 5.6926 3.7595
Atom 1.3116 2.3402 0.3179
Atom 6.3452 8.9379 3.2379
Atom 3.9024 1.9305 3.8511
Atom 2.4192 8.0071 6.2396
Atom 5.1679 5.6937 5.1011
Atom 3.5292 5.6343 8.5131
Atom 8.5964 3.3639 4.5924
Atom 5.6579 0.1116 7.2384
Atom 8.5428 8.6351 0.0506
Atom 3.2241 5.2313 2.5721
Atom 8.4637 5.3447 4.3527
Atom 7.0794 8.6393 4.5050
Atom 9.2114 1.6477 2.9924
Atom 0.0083 1.3946 8.3018
Atom 9.0940 9.7130 9.3017
Atom 8.5916 6.3248 3.9863
Atom 4.7191 8.2037 2.8282
Atom 5.4184 3.2852 3.9005
Atom 3.3171 0.4711 2.2576
Atom 4.2102 8.9772 2.7219
Atom 0.2545 6.1721 5.6928
Atom 1.8692 6.5849 7.0028
Atom 0.1731 6.2100 1.2787
Atom 9.0590 8.3220 4.2977
Atom 2.2867 0.3441 9.9189
Atom 9.2683 5.3987 0.3632
Atom 2.0221 9.3890 1.8536
Atom 1.8043 2.8273 1.6290
Atom 7.4494 2.8394 2.9152
Atom 7.0329 8.9375 8.8605
Atom 2.1856 0.3497 9.3666
Atom 6.0079 6.2735 9.6799
Atom 1.4935 5.8177 6.4551
Atom 7.8151 0.3720 1.4343
Atom 7.2441 6.0307 9.1504
Atom 1.4745 4.8911 1.0477
Atom 1.3882 9.0801 5.7277
Atom 6.6926 0.2876 9.7743
Atom 9.2171 1.9375 8.6685
Atom 8.1247 9.8468 9.2662
Atom 1.5416 3.9568 6.0200
Atom 8.0924 2.2686 0.8012
Atom 0.3876 4.5200 2.1289
100
Step 70
Atom 1.0463 3.4085 1.0744
Atom 4.8091 1.5711 4.9239
Atom 5.0076 9.5395 8.2003
Atom 5.8484 1.9015 1.5049
Atom 5.4532 9.7678 1.6483
Atom 5.1719 4.7044 8.8739
Atom 2.6653 0.9050 4.5816
Atom 6.7011 4.6648 4.7472
Atom 4.9475 8.4695 4.2458
Atom 6.9083 6.2106 6.7269
Atom 6.2909 9.6498 9.0288
Atom 2.5908 5.3690 2.7134
Atom 4.2751 3.0498 6.3634
Atom 1.6387 4.4580 3.2686
Atom 4.9389 5.8787 6.4382
Atom 0.3367 2.9881 8.5149
Atom 5.8019 4.1112 3.8103
Atom 1.4213 5.0427 7.3649
Atom 2.6315 2.7038 6.5785
Atom 1.8119 5.1786 3.2966
Atom 5.8552 3.0024 6.9532
Atom 6.6339 7.0281 4.9192
Atom 1.8284 3.4772 6.0149
Atom 6.6921 9.0256 4.9423
Atom 3.1237 0.3506 0.3651
Atom 8.6852 5.2432 0.1823
Atom 3.8356 9.0560 8.8995
Atom 7.6977 9.6285 9.9782
Atom 2.7023 2.3260 7.2611
Atom 2.2389 6.4189 4.1817
Atom 6.0668 6.2271 1.6142
Atom 5.7877 0.7530 9.8977
Atom 2.4593 9.8507 5.8186
Atom 6.6565 2.5330 6.8318
Atom 3.2404 0.1452 1.1876
Atom 2.0754 1.0068 6.1843
Atom 7.8732 2.4069 9.0355
Atom 3.8329 0.7987 2.2980
Atom 2.8383 2.4177 3.2548
Atom 4.7884 7.3407 9.8507
Atom 8.2602 7.7091 6.9121
Atom 3.6568 8.8731 9.2574
Atom 4.4816 2.8381 4.7150
Atom 6.4672 7.7163 8.6006
Atom 4.0575 2.1392 8.3540
Atom 6.6893 4.8968 3.6672
Atom 7.3664 0.2528 2.1249
Atom 0.0314 7.2761 2.0567
Atom 6.6479 4.4636 8.4177
Atom 9.3894 5.8241 8.1995
Atom 8.4481 6.8828 8.8736
Atom 0.2191 8.8830 9.2843
Atom 8.1477 3.1149 1.3852
Atom 3.3622 3.4011 0.1649
Atom 0.0445 3.1461 3.6506
Atom 9.0014 7.2086 8.1804
Atom 4.3734 5.7303 3.7416
Atom 1.3347 2.4117 0.2510
Atom 6.3710 8.8570 3.1622
Atom 3.9007 1.8802 3.8592
Atom 2.4833 7.9455 6.2895
Atom 5.1022 5.6841 5.1153
Atom 3.4810 5.6418 8.6276
Atom 8.6289 3.3947 4.5737
Atom 5.6220 0.1908 7.2341
Atom 8.5426 8.6680 9.9460
Atom 3.2234 5.3007 2.5659
Atom 8.5319 5.4689 4.4614
Atom 7.0793 8.5986 4.3695
Atom 9.2619 1.6153 3.0240
Atom 0.0496 1.4166 8.3066
Atom 9.0782 9.6550 9.4131
Atom 8.6390 6.2929 3.9396
Atom 4.6889 8.1103 2.7988
Atom 5.3580 3.3376 3.8625
Atom 3.3038 0.5104 2.2604
Atom 4.2725 8.9247 2.7803
Atom 0.2936 6.1647 5.7785
Atom 1.8136 6.5424 6.9487
Atom 0.2207 6.1410 1.1793
Atom 9.0927 8.2899 4.1990
Atom 2.3382 0.2508 9.8751
Atom 9.2734 5.4653 0.3790
Atom 2.0331 9.4007 1.8333
Atom 1.7691 2.8818 1.6046
Atom 7.4324 2.8769 2.9258
Atom 7.0693 8.9412 8.8033
Atom 2.2290 0.3785 9.3817
Atom 6.0195 6.2956 9.6904
Atom 1.4308 5.8144 6.4298
Atom 7.7839 0.3502 1.4603
Atom 7.2509 6.0733 9.1392
Atom 1.4514 4.8755 1.0039
Atom 1.3834 9.1043 5.7803
Atom 6.6400 0.2261 9.7966
Atom 9.1764 1.9485 8.6627
Atom 8.1013 9.8032 9.3307
Atom 1.5813 3.8640 6.0768
Atom 8.0988 2.2306 0.7995
Atom 0.4061 4.4202 2.0888
100
Step 80
Atom 1.0647 3.3981 1.0393
Atom 4.7885 1.6432 4.8953
Atom 5.0497 9.5166 8.2734
Atom 5.7319 1.8660 1.4323
Atom 5.4285 9.7307 1.7380
Atom 5.1729 4.7737 8.8848
Atom 2.6781 0.9213 4.6224
Atom 6.7108 4.7089 4.8156
Atom 4.9423 8.5133 4.2814
Atom 6.9291 6.1530 6.7286
Atom 6.3139 9.5653 8.9618
Atom 2.5803 5.3203 2.6536
Atom 4.3023 3.1348 6.3500
Atom 1.5439 4.4534 3.1896
Atom 4.9594 5.9598 6.4651
Atom 0.2947 2.8980 8.5720
Atom 5.7312 4.1540 3.8695
Atom 1.3368 5.0389 7.2869
Atom 2.6518 2.7634 6.5608
Atom 1.8792 5.2059 3.3011
Atom 5.9159 3.1030 6.9942
Atom 6.5175 7.0222 4.9690
Atom 1.7853 3.4512 5.9809
Atom 6.7483 9.0753 4.9222
Atom 3.1474 0.2791 0.3694
Atom 8.6475 5.2261 0.2402
Atom 3.8356 9.0226 8.9113
Atom 7.7370 9.6877 9.8747
Atom 2.6760 2.3018 7.2101
Atom 2.3153 6.4153 4.1605
Atom 5.9629 6.1842 1.6622
Atom 5.7800 0.7369 9.8450
Atom 2.4629 9.8581 5.8881
Atom 6.6614 2.5980 6.8026
Atom 3.3449 0.1610 1.3250
Atom 2.0883 0.9120 6.1505
Atom 7.8555 2.3850 9.1151
Atom 3.7281 0.8133 2.3066
Atom 2.8033 2.3884 3.2428
Atom 4.7690 7.3298 9.8009
Atom 8.2885 7.7673 6.9536
Atom 3.6472 8.9207 9.3676
Atom 4.4155 2.8148 4.7378
Atom 6.4561 7.7652 8.6105
Atom 4.1113 2.0673 8.3425
Atom 6.6991 4.8423 3.7088
Atom 7.4088 0.2520 2.1082
Atom 9.9859 7.3482 2.0537
Atom 6.6826 4.4808 8.4384
Atom 9.4911 5.8505 8.2119
Atom 8.4188 6.9133 8.8383
Atom 0.2504 8.9130 9.2866
Atom 8.1922 3.1128 1.3670
Atom 3.3501 3.4161 0.1654
Atom 0.0657 3.0984 3.6031
Atom 8.9702 7.2646 8.1398
Atom 4.4009 5.7680 3.7239
Atom 1.3577 2.4832 0.1841
Atom 6.3968 8.7761 3.0863
Atom 3.8989 1.8300 3.8673
Atom 2.5475 7.8838 6.3394
Atom 5.0364 5.6745 5.1294
Atom 3.4329 5.6494 8.7418
Atom 8.6613 3.4259 4.5550
Atom 5.5861 0.2702 7.2300
Atom 8.5421 8.7008 9.8413
Atom 3.2227 5.3698 2.5597
Atom 8.6000 5.5932 4.5701
Atom 7.0791 8.5578 4.2338
Atom 9.3122 1.5829 3.0551
Atom 0.0911 1.4384 8.3118
Atom 9.0619 9.5970 9.5245
Atom 8.6863 6.2609 3.8927
Atom 4.6588 8.0168 2.7692
Atom 5.2973 3.3902 3.8245
Atom 3.2905 0.5498 2.2630
Atom 4.3349 8.8723 2.8387
Atom 0.3328 6.1574 5.8642
Atom 1.7581 6.4997 6.8946
Atom 0.2684 6.0719 1.0799
Atom 9.1262 8.2576 4.1003
Atom 2.3898 0.1577 9.8314
Atom 9.2785 5.5320 0.3949
Atom 2.0442 9.4124 1.8127
Atom 1.7340 2.9363 1.5805
Atom 7.4155 2.9145 2.9364
Atom 7.1057 8.9445 8.7461
Atom 2.2722 0.4073 9.3966
Atom 6.0313 6.3178 9.7008
Atom 1.3679 5.8110 6.4046
Atom 7.7524 0.3286 1.4861
Atom 7.2574 6.1161 9.1280
Atom 1.4282 4.8596 0.9599
Atom 1.3786 9.1284 5.8328
Atom 6.5875 0.1649 9.8188
Atom 9.1357 1.9594 8.6572
Atom 8.0777 9.7599 9.3951
Atom 1.6211 3.7713 6.1334
Atom 8.1052 2.1921 0.7977
Atom 0.4243 4.3204 2.0486
100
Step 90
Atom 1.0828 3.3878 1.0042
Atom 4.7679 1.7154 4.8669
Atom 5.0917 9.4938 8.3468
Atom 5.6156 1.8304 1.3598
Atom 5.4037 9.6935 1.8275
Atom 5.1738 4.8430 8.8955
Atom 2.6912 0.9378 4.6633
Atom 6.7202 4.7530 4.8840
Atom 4.9369 8.5570 4.3170
Atom 6.9500 6.0954 6.7304
Atom 6.3368 9.4807 8.8951
Atom 2.5697 5.2713 2.5937
Atom 4.3293 3.2200 6.3363
Atom 1.4492 4.4489 3.1109
Atom 4.9799 6.0407 6.4921
Atom 0.2529 2.8082 8.6293
Atom 5.6604 4.1969 3.9288
Atom 1.2525 5.0350 7.2090
Atom 2.6722 2.8229 6.5428
Atom 1.9466 5.2330 3.3057
Atom 5.9764 3.2036 7.0350
Atom 6.4013 7.0160 5.0185
Atom 1.7425 3.4250 5.9467
Atom 6.8045 9.1249 4.9022
Atom 3.1715 0.2078 0.3737
Atom 8.6099 5.2088 0.2980
Atom 3.8362 8.9895 8.9233
Atom 7.7763 9.7470 9.7711
Atom 2.6495 2.2774 7.1592
Atom 2.3915 6.4118 4.1398
Atom 5.8590 6.1413 1.7106
Atom 5.7724 0.7206 9.7922
Atom 2.4667 9.8658 5.9577
Atom 6.6661 2.6630 6.7734
Atom 3.4497 0.1769 1.4623
Atom 2.1015 0.8176 6.1166
Atom 7.8379 2.3625 9.1946
Atom 3.6232 0.8278 2.3154
Atom 2.7683 2.3593 3.2309
Atom 4.7499 7.3192 9.7511
Atom 8.3169 7.8254 6.9952
Atom 3.6378 8.9685 9.4779
Atom 4.3492 2.7916 4.7609
Atom 6.4454 7.8145 8.6205
Atom 4.1652 1.9948 8.3312
Atom 6.7089 4.7880 3.7503
Atom 7.4513 0.2513 2.0915
Atom 9.9402 7.4201 2.0505
Atom 6.7174 4.4981 8.4591
Atom 9.5928 5.8770 8.2239
Atom 8.3893 6.9440 8.8030
Atom 0.2819 8.9434 9.2889
Atom 8.2370 3.1106 1.3490
Atom 3.3380 3.4311 0.1660
Atom 0.0872 3.0508 3.5553
Atom 8.9386 7.3207 8.0994
Atom 4.4285 5.8056 3.7063
Atom 1.3806 2.5546 0.1173
Atom 6.4228 8.6951 3.0104
Atom 3.8972 1.7798 3.8756
Atom 2.6118 7.8220 6.3891
Atom 4.9705 5.6646 5.1435
Atom 3.3845 5.6568 8.8558
Atom 8.6935 3.4574 4.5361
Atom 5.5502 0.3497 7.2263
Atom 8.5411 8.7334 9.7365
Atom 3.2221 5.4388 2.5536
Atom 8.6680 5.7177 4.6788
Atom 7.0789 8.5169 4.0980
Atom 9.3622 1.5506 3.0856
Atom 0.1328 1.4600 8.3173
Atom 9.0453 9.5390 9.6360
Atom 8.7336 6.2288 3.8460
Atom 4.6286 7.9234 2.7396
Atom 5.2363 3.4431 3.7866
Atom 3.2773 0.5893 2.2654
Atom 4.3972 8.8200 2.8969
Atom 0.3720 6.1501 5.9499
Atom 1.7025 6.4569 6.8405
Atom 0.3163 6.0025 0.9806
Atom 9.1595 8.2252 4.0017
Atom 2.4413 0.0648 9.7877
Atom 9.2836 5.5986 0.4110
Atom 2.0555 9.4242 1.7921
Atom 1.6990 2.9907 1.5566
Atom 7.3985 2.9519 2.9471
Atom 7.1421 8.9477 8.6889
Atom 2.3152 0.4364 9.4116
Atom 6.0434 6.3402 9.7109
Atom 1.3050 5.8077 6.3793
Atom 7.7206 0.3072 1.5119
Atom 7.2639 6.1592 9.1169
Atom 1.4051 4.8435 0.9156
Atom 1.3739 9.1525 5.8852
Atom 6.5351 0.1037 9.8409
Atom 9.0949 1.9700 8.6520
Atom 8.0538 9.7168 9.4596
Atom 1.6610 3.6787 6.1898
Atom 8.1117 2.1533 0.7958
Atom 0.4423 4.2204 2.0084
100
Step 100
Atom 1.1006 3.3776 0.9692
Atom 4.7470 1.7877 4.8385
Atom 5.1336 9.4711 8.4205
Atom 5.4995 1.7945 1.2875
Atom 5.3788 9.6561 1.9169
Atom 5.1747 4.9123 8.9061
Atom 2.7043 0.9545 4.7041
Atom 6.7295 4.7969 4.9525
Atom 4.9314 8.6007 4.3525
Atom 6.9711 6.0380 6.7324
Atom 6.3596 9.3959 8.8287
Atom 2.5590 5.2220 2.5338
Atom 4.3561 3.3054 6.3221
Atom 1.3543 4.4443 3.0322
Atom 5.0004 6.1212 6.5191
Atom 0.2112 2.7185 8.6868
Atom 5.5894 4.2396 3.9882
Atom 1.1683 5.0308 7.1313
Atom 2.6927 2.8823 6.5246
Atom 2.0139 5.2598 3.3102
Atom 6.0366 3.3043 7.0757
Atom 6.2854 7.0096 5.0677
Atom 1.6999 3.3986 5.9121
Atom 6.8607 9.1744 4.8821
Atom 3.1961 0.1367 0.3779
Atom 8.5724 5.1914 0.3559
Atom 3.8372 8.9566 8.9353
Atom 7.8156 9.8064 9.6673
Atom 2.6231 2.2528 7.1083
Atom 2.4677 6.4082 4.1196
Atom 5.7551 6.0984 1.7592
Atom 5.7648 0.7040 9.7394
Atom 2.4708 9.8738 6.0273
Atom 6.6707 2.7278 6.7443
Atom 3.5548 0.1930 1.5996
Atom 2.1148 0.7236 6.0828
Atom 7.8203 2.3396 9.2741
Atom 3.5182 0.8425 2.3242
Atom 2.7334 2.3304 3.2189
Atom 4.7312 7.3088 9.7014
Atom 8.3453 7.8833 7.0369
Atom 3.6288 9.0165 9.5884
Atom 4.2828 2.7685 4.7842
Atom 6.4351 7.8642 8.6307
Atom 4.2192 1.9219 8.3200
Atom 6.7186 4.7339 3.7919
Atom 7.4938 0.2508 2.0746
Atom 9.8946 7.4917 2.0471
Atom 6.7526 4.5154 8.4800
Atom 9.6946 5.9037 8.2358
Atom 8.3595 6.9748 8.7678
Atom 0.3133 8.9739 9.2913
Atom 8.2823 3.1082 1.3312
Atom 3.3258 3.4463 0.1666
Atom 0.1090 3.0035 3.5071
Atom 8.9067 7.3769 8.0592
Atom 4.4564 5.8432 3.6889
Atom 1.4035 2.6258 0.0506
Atom 6.4489 8.6140 2.9342
Atom 3.8954 1.7297 3.8838
Atom 2.6761 7.7600 6.4388
Atom 4.9046 5.6545 5.1575
Atom 3.3360 5.6641 8.9696
Atom 8.7256 3.4890 4.5171
Atom 5.5144 0.4294 7.2229
Atom 8.5398 8.7660 9.6317
Atom 3.2216 5.5076 2.5473
Atom 8.7359 5.8424 4.7877
Atom 7.0785 8.4760 3.9618
Atom 9.4119 1.5183 3.1154
Atom 0.1744 1.4812 8.3230
Atom 9.0283 9.4813 9.7471
Atom 8.7807 6.1965 3.7995
Atom 4.5984 7.8300 2.7099
Atom 5.1749 3.4961 3.7489
Atom 3.2642 0.6289 2.2675
Atom 4.4595 8.7678 2.9551
Atom 0.4111 6.1428 6.0353
Atom 1.6469 6.4139 6.7865
Atom 0.3642 5.9329 0.8813
Atom 9.1925 8.1926 3.9034
Atom 2.4929 9.9723 9.7442
Atom 9.2887 5.6653 0.4271
Atom 2.0670 9.4359 1.7713
Atom 1.6640 3.0451 1.5331
Atom 7.3815 2.9893 2.9577
Atom 7.1784 8.9507 8.6317
Atom 2.3581 0.4655 9.4266
Atom 6.0558 6.3629 9.7209
Atom 1.2421 5.8043 6.3539
Atom 7.6885 0.2859 1.5376
Atom 7.2704 6.2027 9.1058
Atom 1.3821 4.8274 0.8714
Atom 1.3693 9.1766 5.9377
Atom 6.4827 0.0425 9.8628
Atom 9.0540 1.9801 8.6472
Atom 8.0296 9.6740 9.5239
Atom 1.7010 3.5861 6.2461
Atom 8.1181 2.1140 0.7938
Atom 0.4601 4.1203 1.9680
100
Step 110
Atom 1.1182 3.3676 0.9342
Atom 4.7260 1.8600 4.8101
Atom 5.1754 9.4484 8.4945
Atom 5.3836 1.7584 1.2153
Atom 5.3538 9.6187 2.0060
Atom 5.1755 4.9815 8.9163
Atom 2.7175 0.9713 4.7449
Atom 6.7385 4.8407 5.0212
Atom 4.9257 8.6445 4.3878
Atom 6.9923 5.9807 6.7345
Atom 6.3822 9.3109 8.7625
Atom 2.5483 5.1724 2.4736
Atom 4.3827 3.3912 6.3076
Atom 1.2595 4.4398 2.9537
Atom 5.0209 6.2016 6.5462
Atom 0.1697 2.6290 8.7445
Atom 5.5182 4.2823 4.0478
Atom 1.0843 5.0265 7.0536
Atom 2.7133 2.9417 6.5064
Atom 2.0813 5.2864 3.3147
Atom 6.0965 3.4051 7.1164
Atom 6.1695 7.0029 5.1164
Atom 1.6576 3.3721 5.8773
Atom 6.9170 9.2238 4.8621
Atom 3.2211 0.0657 0.3821
Atom 8.5349 5.1739 0.4136
Atom 3.8388 8.9240 8.9473
Atom 7.8550 9.8659 9.5633
Atom 2.5965 2.2280 7.0573
Atom 2.5438 6.4046 4.0999
Atom 5.6510 6.0556 1.8078
Atom 5.7572 0.6869 9.6865
Atom 2.4750 9.8822 6.0971
Atom 6.6750 2.7927 6.7150
Atom 3.6602 0.2093 1.7369
Atom 2.1282 0.6298 6.0490
Atom 7.8024 2.3162 9.3535
Atom 3.4133 0.8572 2.3332
Atom 2.6984 2.3020 3.2070
Atom 4.7129 7.2985 9.6517
Atom 8.3737 7.9411 7.0788
Atom 3.6202 9.0647 9.6990
Atom 4.2163 2.7455 4.8076
Atom 6.4252 7.9143 8.6410
Atom 4.2731 1.8489 8.3090
Atom 6.7284 4.6802 3.8336
Atom 7.5363 0.2503 2.0575
Atom 9.8489 7.5631 2.0433