100
Step 0
Atom 4.2907 9.1498 0.5362
Atom 0.3174 0.2755 3.4579
Atom 2.6633 8.0408 9.1052
Atom 4.1728 4.7454 9.8960
Atom 4.6733 6.0512 9.6586
Atom 9.5268 8.5610 6.1848
Atom 3.2623 0.8555 8.1605
Atom 8.1766 5.7264 9.6118
Atom 3.3158 9.3119 5.0364
Atom 1.7012 8.3436 4.4109
Atom 2.9085 5.4339 3.6638
Atom 7.2316 1.1309 7.3561
Atom 3.2828 2.8358 5.6688
Atom 7.2273 4.6116 4.9808
Atom 6.5212 4.4496 7.3263
Atom 4.7269 4.5593 0.1083
Atom 2.6857 3.5795 9.7428
Atom 0.4147 9.7126 4.1019
Atom 5.1388 6.4299 0.0074
Atom 7.1467 7.5367 7.1490
Atom 2.8982 7.3276 7.4561
Atom 9.3478 1.8413 3.1388
Atom 8.0547 0.5073 0.2385
Atom 7.1049 0.1947 2.9922
Atom 7.5701 2.6853 7.7260
Atom 6.8559 0.2441 3.7894
Atom 3.2226 2.2484 0.8769
Atom 4.3873 5.5632 4.5506
Atom 9.6110 3.4466 2.6877
Atom 3.2411 6.8077 1.3937
Atom 6.9755 9.6192 6.1622
Atom 8.3057 7.3807 1.7508
Atom 8.8046 3.6071 4.7608
Atom 6.4618 2.2696 5.4918
Atom 6.6354 8.1205 0.3573
Atom 4.5827 4.7061 3.0123
Atom 8.6875 4.7830 3.3768
Atom 4.3830 1.6863 6.6337
Atom 2.3561 6.6358 9.7006
Atom 5.1299 3.4616 3.6452
Atom 8.1413 5.7313 7.6610
Atom 3.1509 1.2489 2.5655
Atom 8.2666 8.5262 4.4888
Atom 2.8744 8.9491 3.3958
Atom 1.8885 9.3953 3.8547
Atom 9.1636 5.1478 4.7241
Atom 4.8056 0.0142 2.3080
Atom 9.2023 2.0087 4.4136
Atom 5.3486 8.2874 9.0150
Atom 7.3522 7.1682 0.3247
Atom 4.4233 5.3878 0.5910
Atom 5.6059 2.7207 8.3686
Atom 8.9593 4.3628 0.3655
Atom 3.9088 6.4138 8.3846
Atom 3.5746 1.9430 2.0879
Atom 0.9034 4.6890 4.2922
Atom 0.5451 8.6523 1.8753
Atom 5.9773 9.3283 4.0854
Atom 4.8865 6.8405 6.3367
Atom 3.1533 1.4836 6.3648
Atom 6.8204 8.9172 2.3283
Atom 7.7845 1.4739 2.2759
Atom 4.0234 2.9924 2.8208
Atom 5.8483 1.8588 7.3761
Atom 1.4127 9.4847 7.0877
Atom 6.0549 6.0846 1.6038
Atom 2.5158 0.4836 5.8816
Atom 6.7640 4.8291 8.2832
Atom 9.4430 4.3357 3.7772
Atom 5.9246 8.1989 1.2784
Atom 4.0109 3.2951 9.3835
Atom 4.9520 5.4769 3.3488
Atom 0.9550 3.9366 9.0200
Atom 5.9702 0.4546 4.8939
Atom 5.3753 1.3331 2.6092
Atom 6.1175 6.6297 2.1820
Atom 1.2312 2.6651 2.6325
Atom 2.1679 0.2841 8.6805
Atom 6.8390 2.8935 0.8910
Atom 3.5559 7.4248 1.8207
Atom 7.7475 0.3417 6.5919
Atom 6.2612 3.3002 2.7207
Atom 4.6632 1.9170 0.9060
Atom 2.9607 0.4385 0.7311
Atom 2.2702 3.2726 8.0217
Atom 4.0465 9.9538 5.2661
Atom 3.3493 8.1478 7.3971
Atom 2.6130 3.0380 3.0262
Atom 6.6514 9.9069 4.5391
Atom 5.1926 9.1308 3.6437
Atom 5.3586 4.9500 6.9683
Atom 6.8010 2.0101 7.8738
Atom 1.9155 1.8761 1.5467
Atom 3.3727 7.3492 5.8287
Atom 6.5194 4.3862 0.4820
Atom 2.0444 2.7786 6.3342
Atom 7.8458 4.1606 0.7486
Atom 0.4879 5.0684 2.7430
Atom 0.0908 4.4199 5.6095
Atom 9.5270 1.9748 1.4292
100
Step 10
Atom 4.2699 9.1598 0.5705
Atom 0.3223 0.2404 3.5074
Atom 2.6376 8.0865 9.0546
Atom 4.2399 4.7925 9.8809
Atom 4.5883 6.0617 9.6708
Atom 9.5092 8.5478 6.1997
Atom 3.2155 0.8215 8.1204
Atom 8.1213 5.7727 9.6293
Atom 3.2704 9.3691 5.0362
Atom 1.6956 8.3241 4.3551
Atom 2.8881 5.4820 3.6840
Atom 7.2582 1.0908 7.3986
Atom 3.3328 2.8321 5.6855
Atom 7.2353 4.5815 4.9944
Atom 6.4466 4.4447 7.3220
Atom 4.8498 4.6307 0.1190
Atom 2.6901 3.5593 9.7113
Atom 0.4849 9.7168 4.0734
Atom 5.1465 6.5010 9.9661
Atom 7.1299 7.5172 7.0564
Atom 2.9096 7.2909 7.4548
Atom 9.4347 1.8243 3.0877
Atom 8.0323 0.4601 0.2871
Atom 7.0428 0.1969 2.9387
Atom 7.5906 2.6679 7.6943
Atom 6.8320 0.2203 3.7865
Atom 3.2133 2.2090 0.9040
Atom 4.3789 5.5892 4.6216
Atom 9.6116 3.4339 2.6739
Atom 3.2141 6.7481 1.3770
Atom 6.9680 9.6271 6.1681
Atom 8.3193 7.3697 1.7305
Atom 8.8498 3.5820 4.7523
Atom 6.4539 2.3139 5.5228
Atom 6.6084 8.1106 0.3702
Atom 4.5463 4.7466 3.0457
Atom 8.7601 4.7733 3.4246
Atom 4.4267 1.6618 6.6434
Atom 2.3903 6.6931 9.6986
Atom 5.1826 3.4442 3.5539
Atom 8.1623 5.6504 7.6448
Atom 3.1713 1.2650 2.6108
Atom 8.1724 8.4912 4.4424
Atom 2.8814 8.9585 3.4376
Atom 1.8845 9.3557 3.8255
Atom 9.1524 5.1448 4.6803
Atom 4.7968 9.8848 2.3385
Atom 9.1876 1.9961 4.4044
Atom 5.3350 8.2635 9.0046
Atom 7.4057 7.1860 0.3034
Atom 4.4235 5.3953 0.5992
Atom 5.7170 2.7482 8.3286
Atom 8.9503 4.3476 0.3318
Atom 3.9410 6.4425 8.3100
Atom 3.5542 1.9792 2.0363
Atom 0.9299 4.6450 4.3187
Atom 0.5965 8.6805 1.8701
Atom 5.9977 9.3062 4.1588
Atom 4.8926 6.9029 6.3234
Atom 3.2051 1.4732 6.2905
Atom 6.7869 8.9093 2.3690
Atom 7.7645 1.4545 2.2592
Atom 4.0212 2.9736 2.8329
Atom 5.8341 1.8596 7.4104
Atom 1.4474 9.5051 7.1448
Atom 6.0465 6.0397 1.6145
Atom 2.5378 0.4915 5.8834
Atom 6.7329 4.8514 8.2766
Atom 9.4786 4.3562 3.8634
Atom 5.8770 8.2329 1.2871
Atom 4.0334 3.2350 9.3969
Atom 4.8960 5.4893 3.3551
Atom 0.9607 3.9152 9.0542
Atom 5.9455 0.5028 4.9684
Atom 5.4124 1.3380 2.6428
Atom 6.1489 6.5213 2.1243
Atom 1.1740 2.7461 2.6729
Atom 2.1713 0.3272 8.7060
Atom 6.9120 2.8694 0.9083
Atom 3.5758 7.3887 1.7770
Atom 7.7136 0.3171 6.5990
Atom 6.2416 3.3805 2.7875
Atom 4.6484 1.9110 0.8710
Atom 2.9947 0.3989 0.7343
Atom 2.3375 3.3357 8.1146
Atom 4.0324 9.9409 5.2076
Atom 3.2644 8.1564 7.3703
Atom 2.6294 3.0513 3.0182
Atom 6.6802 9.9250 4.4792
Atom 5.2326 9.1753 3.6136
Atom 5.3732 5.0037 6.9701
Atom 6.7936 1.9482 7.8457
Atom 1.8657 1.9049 1.5395
Atom 3.3748 7.3887 5.7975
Atom 6.4053 4.3439 0.4728
Atom 2.0037 2.7750 6.3508
Atom 7.8706 4.1590 0.8279
Atom 0.4261 5.1146 2.7331
Atom 0.0593 4.4049 5.6184
Atom 9.4567 1.9927 1.4604
100
Step 20
Atom 4.2488 9.1696 0.6089
Atom 0.3278 0.2023 3.5612
Atom 2.6098 8.1362 8.9996
Atom 4.3128 4.8437 9.8646
Atom 4.4961 6.0731 9.6841
Atom 9.4900 8.5337 6.2158
Atom 3.1648 0.7846 8.0769
Atom 8.0524 5.8261 9.6540
Atom 3.2213 9.4313 5.0362
Atom 1.6895 8.3030 4.2944
Atom 2.8660 5.5342 3.7056
Atom 7.2871 1.0471 7.4447
Atom 3.3872 2.8282 5.7037
Atom 7.2439 4.5487 5.0089
Atom 6.3655 4.4392 7.3176
Atom 4.9837 4.7080 0.1307
Atom 2.6954 3.5372 9.6778
Atom 0.5612 9.7215 4.0424
Atom 5.1548 6.5782 9.9213
Atom 7.1116 7.4960 6.9558
Atom 2.9221 7.2512 7.4534
Atom 9.5291 1.8060 3.0322
Atom 8.0076 0.4087 0.3402
Atom 6.9763 0.1991 2.8806
Atom 7.6129 2.6489 7.6597
Atom 6.8042 0.1971 3.7833
Atom 3.2033 2.1663 0.9334
Atom 4.3698 5.6174 4.6988
Atom 9.6122 3.4202 2.6588
Atom 3.1849 6.6834 1.3588
Atom 6.9598 9.6359 6.1746
Atom 8.3341 7.3577 1.7083
Atom 8.8989 3.5547 4.7430
Atom 6.4453 2.3619 5.5563
Atom 6.5790 8.0998 0.3843
Atom 4.5065 4.7906 3.0792
Atom 8.8390 4.7628 3.4765
Atom 4.4741 1.6351 6.6540
Atom 2.4277 6.7554 9.6964
Atom 5.2398 3.4253 3.4547
Atom 8.1840 5.5609 7.6268
Atom 3.1935 1.2824 2.6602
Atom 8.0700 8.4533 4.3919
Atom 2.8890 8.9687 3.4830
Atom 1.8804 9.3128 3.7938
Atom 9.1403 5.1416 4.6326
Atom 4.7874 9.7444 2.3717
Atom 9.1714 1.9823 4.3941
Atom 5.3201 8.2375 8.9931
Atom 7.4638 7.2054 0.2802
Atom 4.4237 5.4034 0.6081
Atom 5.8376 2.7782 8.2852
Atom 8.9404 4.3311 0.2953
Atom 3.9770 6.4723 8.2305
Atom 3.5320 2.0186 1.9803
Atom 0.9589 4.5969 4.3474
Atom 0.6524 8.7111 1.8646
Atom 6.0198 9.2821 4.2386
Atom 4.8992 6.9708 6.3089
Atom 3.2614 1.4618 6.2098
Atom 6.7505 8.9007 2.4132
Atom 7.7427 1.4335 2.2413
Atom 4.0188 2.9533 2.8459
Atom 5.8186 1.8605 7.4476
Atom 1.4851 9.5273 7.2068
Atom 6.0374 5.9909 1.6260
Atom 2.5616 0.4992 5.8848
Atom 6.6980 4.8758 8.2706
Atom 9.5173 4.3784 3.9571
Atom 5.8254 8.2699 1.2966
Atom 4.0582 3.1699 9.4116
Atom 4.8351 5.5010 3.3586
Atom 0.9669 3.8919 9.0914
Atom 5.9181 0.5556 5.0493
Atom 5.4528 1.3430 2.6795
Atom 6.1824 6.4033 2.0614
Atom 1.1120 2.8341 2.7168
Atom 2.1752 0.3742 8.7336
Atom 6.9912 2.8433 0.9270
Atom 3.6047 7.3467 1.7272
Atom 7.6767 0.2905 6.6068
Atom 6.2203 3.4679 2.8599
Atom 4.6324 1.9048 0.8330
Atom 3.0318 0.3555 0.7377
Atom 2.4113 3.4037 8.2153
Atom 4.0172 9.9268 5.1440
Atom 3.1722 8.1659 7.3411
Atom 2.6474 3.0659 3.0097
Atom 6.7112 9.9452 4.4138
Atom 5.2759 9.2233 3.5804
Atom 5.3891 5.0620 6.9721
Atom 6.7855 1.8811 7.8151
Atom 1.8117 1.9362 1.5318
Atom 3.3772 7.4315 5.7636
Atom 6.2813 4.2980 0.4628
Atom 1.9594 2.7711 6.3689
Atom 7.8971 4.1572 0.9148
Atom 0.3589 5.1647 2.7224
Atom 0.0251 4.3886 5.6280
Atom 9.3804 2.0123 1.4945
100
Step 30
Atom 4.2272 9.1784 0.6493
Atom 0.3335 0.1627 3.6172
Atom 2.5810 8.1880 8.9424
Atom 4.3888 4.8971 9.8476
Atom 4.4000 6.0851 9.6979
Atom 9.4698 8.5190 6.2326
Atom 3.1119 0.7462 8.0317
Atom 7.9698 5.8847 9.6872
Atom 3.1702 9.4962 5.0362
Atom 1.6833 8.2812 4.2311
Atom 2.8428 5.5885 3.7279
Atom 7.3172 1.0016 7.4927
Atom 3.4440 2.8240 5.7225
Atom 7.2528 4.5143 5.0239
Atom 6.2807 4.4330 7.3130
Atom 5.1233 4.7885 0.1428
Atom 2.7017 3.5141 9.6436
Atom 0.6408 9.7265 4.0102
Atom 5.1633 6.6586 9.8747
Atom 7.0925 7.4739 6.8511
Atom 2.9351 7.2098 7.4520
Atom 9.6275 1.7869 2.9745
Atom 7.9812 0.3551 0.3958
Atom 6.9075 0.2012 2.8198
Atom 7.6360 2.6292 7.6236
Atom 6.7736 0.1754 3.7803
Atom 3.1929 2.1218 0.9640
Atom 4.3605 5.6467 4.7792
Atom 9.6128 3.4058 2.6431
Atom 3.1545 6.6158 1.3398
Atom 6.9512 9.6452 6.1813
Atom 8.3494 7.3452 1.6853
Atom 8.9500 3.5261 4.7331
Atom 6.4364 2.4119 5.5912
Atom 6.5483 8.0886 0.3989
Atom 4.4648 4.8365 3.1112
Atom 8.9212 4.7517 3.5305
Atom 4.5237 1.6074 6.6651
Atom 2.4667 6.8202 9.6941
Atom 5.2994 3.4056 3.3513
Atom 8.2055 5.4660 7.6075
Atom 3.2165 1.3005 2.7117
Atom 7.9633 8.4138 4.3393
Atom 2.8969 8.9793 3.5303
Atom 1.8762 9.2681 3.7608
Atom 9.1276 5.1382 4.5829
Atom 4.7776 9.5983 2.4065
Atom 9.1545 1.9679 4.3833
Atom 5.3046 8.2103 8.9812
Atom 7.5243 7.2256 0.2560
Atom 4.4238 5.4117 0.6173
Atom 5.9633 2.8096 8.2401
Atom 8.9301 4.3138 0.2574
Atom 4.0156 6.5020 8.1489
Atom 3.5090 2.0598 1.9220
Atom 0.9892 4.5465 4.3773
Atom 0.7107 8.7429 1.8589
Atom 6.0427 9.2571 4.3217
Atom 4.9062 7.0415 6.2937
Atom 3.3201 1.4499 6.1257
Atom 6.7125 8.8918 2.4592
Atom 7.7199 1.4117 2.2227
Atom 4.0162 2.9321 2.8596
Atom 5.8025 1.8614 7.4864
Atom 1.5246 9.5504 7.2714
Atom 6.0280 5.9400 1.6378
Atom 2.5864 0.5063 5.8856
Atom 6.6607 4.9012 8.2653
Atom 9.5576 4.4015 4.0547
Atom 5.7715 8.3085 1.3066
Atom 4.0846 3.1024 9.4272
Atom 4.7713 5.5123 3.3590
Atom 0.9735 3.8676 9.1302
Atom 5.8892 0.6111 5.1333
Atom 5.4950 1.3481 2.7180
Atom 6.2170 6.2799 1.9957
Atom 1.0474 2.9257 2.7626
Atom 2.1793 0.4231 8.7624
Atom 7.0738 2.8161 0.9465
Atom 3.6406 7.3010 1.6758
Atom 7.6382 0.2628 6.6148
Atom 6.1985 3.5592 2.9352
Atom 4.6160 1.8986 0.7935
Atom 3.0707 0.3100 0.7411
Atom 2.4890 3.4742 8.3202
Atom 4.0012 9.9121 5.0775
Atom 3.0761 8.1760 7.3108
Atom 2.6662 3.0812 3.0009
Atom 6.7431 9.9668 4.3455
Atom 5.3206 9.2730 3.5453
Atom 5.4056 5.1227 6.9741
Atom 6.7768 1.8112 7.7832
Atom 1.7555 1.9689 1.5237
Atom 3.3797 7.4763 5.7282
Atom 6.1519 4.2502 0.4524
Atom 1.9133 2.7670 6.3876
Atom 7.9244 4.1554 1.0061
Atom 0.2890 5.2170 2.7112
Atom 9.9894 4.3715 5.6379
Atom 9.3007 2.0328 1.5300
100
Step 40
Atom 4.2054 9.1861 0.6904
Atom 0.3394 0.1223 3.6744
Atom 2.5518 8.2410 8.8841
Atom 4.4664 4.9517 9.8303
Atom 4.3021 6.0972 9.7121
Atom 9.4492 8.5042 6.2495
Atom 3.0581 0.7071 7.9855
Atom 7.8703 5.9448 9.7293
Atom 3.1182 9.5626 5.0362
Atom 1.6769 8.2589 4.1665
Atom 2.8192 5.6440 3.7503
Atom 7.3478 0.9552 7.5417
Atom 3.5020 2.8198 5.7417
Atom 7.2619 4.4792 5.0392
Atom 6.1939 4.4264 7.3085
Atom 5.2659 4.8706 0.1554
Atom 2.7087 3.4903 9.6093
Atom 0.7219 9.7318 3.9773
Atom 5.1720 6.7405 9.8270
Atom 7.0729 7.4514 6.7441
Atom 2.9484 7.1675 7.4506
Atom 9.7280 1.7674 2.9155
Atom 7.9538 0.3003 0.4530
Atom 6.8376 0.2030 2.7578
Atom 7.6596 2.6093 7.5867
Atom 6.7423 0.1557 3.7783
Atom 3.1823 2.0764 0.9953
Atom 4.3509 5.6765 4.8613
Atom 9.6133 3.3912 2.6270
Atom 3.1235 6.5469 1.3205
Atom 6.9423 9.6550 6.1881
Atom 8.3649 7.3324 1.6617
Atom 9.0022 3.4968 4.7230
Atom 6.4272 2.4629 5.6268
Atom 6.5168 8.0771 0.4139
Atom 4.4220 4.8836 3.1411
Atom 9.0050 4.7402 3.5855
Atom 4.5743 1.5790 6.6764
Atom 2.5066 6.8863 9.6918
Atom 5.3602 3.3854 3.2458
Atom 8.2264 5.3671 7.5870
Atom 3.2400 1.3190 2.7644
Atom 7.8544 8.3736 4.2855
Atom 2.9049 8.9901 3.5785
Atom 1.8721 9.2227 3.7272
Atom 9.1147 5.1346 4.5321
Atom 4.7675 9.4492 2.4422
Atom 9.1371 1.9533 4.3720
Atom 5.2887 8.1825 8.9690
Atom 7.5860 7.2462 0.2313
Atom 4.4238 5.4201 0.6268
Atom 6.0916 2.8418 8.1941
Atom 8.9194 4.2961 0.2188
Atom 4.0560 6.5314 8.0665
Atom 3.4855 2.1018 1.8625
Atom 1.0203 4.4949 4.4077
Atom 0.7704 8.7755 1.8532
Atom 6.0661 9.2317 4.4065
Atom 4.9133 7.1138 6.2783
Atom 3.3800 1.4378 6.0398
Atom 6.6736 8.8827 2.5060
Atom 7.6966 1.3894 2.2038
Atom 4.0136 2.9105 2.8735
Atom 5.7859 1.8623 7.5258
Atom 1.5649 9.5739 7.3372
Atom 6.0184 5.8881 1.6497
Atom 2.6115 0.5124 5.8854
Atom 6.6220 4.9270 8.2605
Atom 9.5987 4.4251 4.1544
Atom 5.7166 8.3479 1.3170
Atom 4.1120 3.0337 9.4434
Atom 4.7049 5.5239 3.3560
Atom 0.9802 3.8428 9.1699
Atom 5.8594 0.6681 5.2187
Atom 5.5381 1.3530 2.7575
Atom 6.2519 6.1536 1.9283
Atom 0.9815 3.0192 2.8095
Atom 2.1836 0.4732 8.7917
Atom 7.1578 2.7883 0.9664
Atom 3.6816 7.2544 1.6269
Atom 7.5988 0.2345 6.6229
Atom 6.1764 3.6525 3.0118
Atom 4.5995 1.8926 0.7532
Atom 3.1107 0.2630 0.7446
Atom 2.5692 3.5457 8.4273
Atom 3.9849 9.8970 5.0096
Atom 2.9781 8.1864 7.2797
Atom 2.6855 3.0970 2.9920
Atom 6.7754 9.9891 4.2756
Atom 5.3658 9.3237 3.5096
Atom 5.4226 5.1846 6.9763
Atom 6.7679 1.7399 7.7506
Atom 1.6980 2.0022 1.5155
Atom 3.3823 7.5220 5.6921
Atom 6.0197 4.2015 0.4417
Atom 1.8662 2.7628 6.4067
Atom 7.9519 4.1535 1.1001
Atom 0.2175 5.2702 2.6998
Atom 9.9530 4.3540 5.6481
Atom 9.2193 2.0539 1.5663
100
Step 50
Atom 4.1840 9.1929 0.7321
Atom 0.3454 0.0816 3.7321
Atom 2.5225 8.2945 8.8253
Atom 4.5449 5.0068 9.8129
Atom 4.2032 6.1095 9.7264
Atom 9.4283 8.4894 6.2666
Atom 3.0038 0.6675 7.9389
Atom 7.7515 6.0049 9.7793
Atom 3.0659 9.6297 5.0362
Atom 1.6706 8.2364 4.1012
Atom 2.7953 5.7000 3.7727
Atom 7.3787 0.9083 7.5911
Atom 3.5606 2.8155 5.7610
Atom 7.2709 4.4436 5.0548
Atom 6.1061 4.4195 7.3039
Atom 5.4101 4.9535 0.1682
Atom 2.7164 3.4661 9.5753
Atom 0.8040 9.7371 3.9441
Atom 5.1807 6.8232 9.7788
Atom 7.0531 7.4286 6.6361
Atom 2.9619 7.1249 7.4492
Atom 9.8295 1.7477 2.8561
Atom 7.9255 0.2448 0.5112
Atom 6.7670 0.2044 2.6950
Atom 7.6832 2.5893 7.5492
Atom 6.7102 0.1379 3.7775
Atom 3.1717 2.0305 1.0268
Atom 4.3413 5.7067 4.9442
Atom 9.6139 3.3764 2.6108
Atom 3.0924 6.4771 1.3011
Atom 6.9331 9.6650 6.1951
Atom 8.3806 7.3194 1.6380
Atom 9.0550 3.4671 4.7127
Atom 6.4180 2.5144 5.6628
Atom 6.4850 8.0654 0.4291
Atom 4.3791 4.9318 3.1685
Atom 9.0896 4.7286 3.6410
Atom 4.6255 1.5504 6.6878
Atom 2.5470 6.9531 9.6895
Atom 5.4215 3.3649 3.1390
Atom 8.2460 5.2660 7.5649
Atom 3.2637 1.3375 2.8177
Atom 7.7443 8.3329 4.2311
Atom 2.9131 9.0011 3.6272
Atom 1.8682 9.1769 3.6932
Atom 9.1016 5.1310 4.4808
Atom 4.7571 9.2986 2.4782
Atom 9.1194 1.9388 4.3603
Atom 5.2726 8.1544 8.9567
Atom 7.6482 7.2669 0.2064
Atom 4.4238 5.4286 0.6364
Atom 6.2211 2.8744 8.1476
Atom 8.9086 4.2782 0.1798
Atom 4.0978 6.5601 7.9836
Atom 3.4619 2.1443 1.8023
Atom 1.0519 4.4424 4.4383
Atom 0.8309 8.8084 1.8476
Atom 6.0897 9.2059 4.4922
Atom 4.9205 7.1869 6.2627
Atom 3.4407 1.4255 5.9531
Atom 6.6343 8.8736 2.5532
Atom 7.6730 1.3670 2.1849
Atom 4.0109 2.8887 2.8875
Atom 5.7692 1.8632 7.5656
Atom 1.6057 9.5977 7.4037
Atom 6.0086 5.8357 1.6615
Atom 2.6368 0.5174 5.8843
Atom 6.5822 4.9530 8.2563
Atom 9.6401 4.4488 4.2551
Atom 5.6611 8.3877 1.3274
Atom 4.1400 2.9643 9.4600
Atom 4.6365 5.5360 3.3495
Atom 0.9871 3.8176 9.2100
Atom 5.8290 0.7262 5.3049
Atom 5.5816 1.3579 2.7975
Atom 6.2869 6.0256 1.8603
Atom 0.9149 3.1136 2.8569
Atom 2.1881 0.5238 8.8213
Atom 7.2426 2.7601 0.9865
Atom 3.7277 7.2069 1.5814
Atom 7.5590 0.2060 6.6311
Atom 6.1542 3.7469 3.0888
Atom 4.5830 1.8868 0.7125
Atom 3.1517 0.2148 0.7484
Atom 2.6509 3.6179 8.5358
Atom 3.9684 9.8816 4.9407
Atom 2.8791 8.1971 7.2484
Atom 2.7050 3.1130 2.9830
Atom 6.8079 0.0121 4.2050
Atom 5.4110 9.3749 3.4736
Atom 5.4398 5.2471 6.9786
Atom 6.7587 1.6679 7.7175
Atom 1.6400 2.0360 1.5072
Atom 3.3849 7.5683 5.6555
Atom 5.8862 4.1523 0.4310
Atom 1.8186 2.7586 6.4259
Atom 7.9791 4.1518 1.1958
Atom 0.1454 5.3241 2.6883
Atom 9.9162 4.3363 5.6583
Atom 9.1370 2.0752 1.6031
100
Step 60
Atom 4.1633 9.1989 0.7742
Atom 0.3515 0.0408 3.7902
Atom 2.4932 8.3484 8.7663
Atom 4.6238 5.0624 9.7955
Atom 4.1038 6.1217 9.7408
Atom 9.4071 8.4746 6.2837
Atom 2.9492 0.6276 7.8921
Atom 7.6129 6.0637 9.8370
Atom 3.0133 9.6972 5.0363
Atom 1.6644 8.2138 4.0355
Atom 2.7713 5.7565 3.7950
Atom 7.4098 0.8612 7.6408
Atom 3.6197 2.8112 5.7803
Atom 7.2799 4.4078 5.0707
Atom 6.0178 4.4122 7.2992
Atom 5.5551 5.0367 0.1811
Atom 2.7247 3.4416 9.5417
Atom 0.8865 9.7426 3.9108
Atom 5.1895 6.9063 9.7305
Atom 7.0331 7.4056 6.5274
Atom 2.9755 7.0820 7.4479
Atom 9.9315 1.7280 2.7964
Atom 7.8966 0.1889 0.5699
Atom 6.6958 0.2055 2.6320
Atom 7.7069 2.5694 7.5115
Atom 6.6773 0.1219 3.7775
Atom 3.1612 1.9844 1.0585
Atom 4.3317 5.7369 5.0275
Atom 9.6145 3.3616 2.5945
Atom 3.0613 6.4070 1.2815
Atom 6.9239 9.6752 6.2020
Atom 8.3963 7.3063 1.6142
Atom 9.1080 3.4372 4.7023
Atom 6.4087 2.5661 5.6989
Atom 6.4530 8.0537 0.4444
Atom 4.3363 4.9812 3.1935
Atom 9.1747 4.7167 3.6967
Atom 4.6771 1.5216 6.6993
Atom 2.5878 7.0202 9.6872
Atom 5.4832 3.3443 3.0317
Atom 8.2641 5.1629 7.5410
Atom 3.2876 1.3561 2.8715
Atom 7.6335 8.2922 4.1765
Atom 2.9214 9.0121 3.6762
Atom 1.8644 9.1309 3.6592
Atom 9.0884 5.1273 4.4291
Atom 4.7464 9.1473 2.5144
Atom 9.1016 1.9245 4.3483
Atom 5.2563 8.1261 8.9442
Atom 7.7106 7.2878 0.1814
Atom 4.4238 5.4369 0.6461
Atom 6.3512 2.9073 8.1009
Atom 8.8977 4.2601 0.1407
Atom 4.1405 6.5883 7.9005
Atom 3.4382 2.1871 1.7418
Atom 1.0837 4.3894 4.4688
Atom 0.8918 8.8414 1.8420
Atom 6.1133 9.1801 4.5784
Atom 4.9277 7.2603 6.2470
Atom 3.5018 1.4131 5.8659
Atom 6.5947 8.8645 2.6004
Atom 7.6493 1.3444 2.1661
Atom 4.0082 2.8669 2.9017
Atom 5.7523 1.8642 7.6056
Atom 1.6467 9.6216 7.4704
Atom 5.9989 5.7831 1.6732
Atom 2.6621 0.5213 5.8822
Atom 6.5413 4.9791 8.2527
Atom 9.6818 4.4725 4.3562
Atom 5.6054 8.4276 1.3380
Atom 4.1683 2.8945 9.4769
Atom 4.5663 5.5486 3.3391
Atom 0.9941 3.7923 9.2504
Atom 5.7980 0.7850 5.3915
Atom 5.6254 1.3626 2.8378
Atom 6.3218 5.8969 1.7916
Atom 0.8480 3.2084 2.9047
Atom 2.1927 0.5747 8.8511
Atom 7.3275 2.7318 1.0069
Atom 3.7787 7.1573 1.5391
Atom 7.5189 0.1774 6.6392
Atom 6.1322 3.8419 3.1658
Atom 4.5664 1.8813 0.6719
Atom 3.1933 0.1656 0.7528
Atom 2.7337 3.6904 8.6450
Atom 3.9518 9.8661 4.8713
Atom 2.7797 8.2080 7.2168
Atom 2.7247 3.1293 2.9741
Atom 6.8405 0.0355 4.1341
Atom 5.4557 9.4263 3.4375
Atom 5.4571 5.3099 6.9811
Atom 6.7495 1.5954 7.6842
Atom 1.5817 2.0700 1.4988
Atom 3.3875 7.6149 5.6187
Atom 5.7518 4.1029 0.4202
Atom 1.7707 2.7544 6.4452
Atom 8.0057 4.1506 1.2927
Atom 0.0728 5.3781 2.6767
Atom 9.8791 4.3184 5.6686
Atom 9.0543 2.0968 1.6401
100
Step 70
Atom 4.1435 9.2043 0.8166
Atom 0.3577 9.9999 3.8484
Atom 2.4640 8.4023 8.7072
Atom 4.7029 5.1181 9.7780
Atom 4.0043 6.1340 9.7553
Atom 9.3857 8.4599 6.3007
Atom 2.8946 0.5876 7.8452
Atom 7.4622 6.1193 9.8934
Atom 2.9608 9.7650 5.0364
Atom 1.6583 8.1911 3.9698
Atom 2.7472 5.8132 3.8171
Atom 7.4408 0.8140 7.6905
Atom 3.6790 2.8069 5.7997
Atom 7.2890 4.3719 5.0869
Atom 5.9292 4.4047 7.2946
Atom 5.7004 5.1198 0.1940
Atom 2.7337 3.4168 9.5088
Atom 0.9692 9.7481 3.8775
Atom 5.1984 6.9894 9.6821
Atom 7.0131 7.3826 6.4184
Atom 2.9893 7.0391 7.4465
Atom 0.0338 1.7084 2.7365
Atom 7.8670 0.1325 0.6290
Atom 6.6243 0.2066 2.5694
Atom 7.7304 2.5496 7.4735
Atom 6.6418 0.1067 3.7774
Atom 3.1506 1.9381 1.0903
Atom 4.3220 5.7672 5.1111
Atom 9.6151 3.3467 2.5782
Atom 3.0302 6.3366 1.2619
Atom 6.9146 9.6855 6.2088
Atom 8.4119 7.2933 1.5905
Atom 9.1611 3.4071 4.6917
Atom 6.3994 2.6179 5.7351
Atom 6.4208 8.0419 0.4599
Atom 4.2938 5.0315 3.2158
Atom 9.2599 4.7047 3.7524
Atom 4.7288 1.4926 6.7108
Atom 2.6289 7.0875 9.6849
Atom 5.5450 3.3236 2.9240
Atom 8.2805 5.0578 7.5160
Atom 3.3117 1.3744 2.9254
Atom 7.5225 8.2514 4.1217
Atom 2.9298 9.0233 3.7252
Atom 1.8608 9.0849 3.6251
Atom 9.0752 5.1235 4.3772
Atom 4.7356 8.9960 2.5509
Atom 9.0836 1.9104 4.3360
Atom 5.2399 8.0977 8.9318
Atom 7.7730 7.3086 0.1563
Atom 4.4237 5.4453 0.6559
Atom 6.4815 2.9403 8.0542
Atom 8.8867 4.2420 0.1016
Atom 4.1837 6.6165 7.8175
Atom 3.4145 2.2301 1.6811
Atom 1.1157 4.3359 4.4993
Atom 0.9531 8.8747 1.8363
Atom 6.1370 9.1542 4.6649
Atom 4.9349 7.3341 6.2313
Atom 3.5631 1.4006 5.7784
Atom 6.5551 8.8554 2.6477
Atom 7.6255 1.3218 2.1473
Atom 4.0055 2.8450 2.9158
Atom 5.7353 1.8651 7.6456
Atom 1.6878 9.6455 7.5372
Atom 5.9891 5.7306 1.6847
Atom 2.6875 0.5240 5.8791
Atom 6.4998 5.0055 8.2496
Atom 9.7235 4.4963 4.4577
Atom 5.5496 8.4675 1.3487
Atom 4.1974 2.8247 9.4936
Atom 4.4944 5.5619 3.3245
Atom 1.0012 3.7668 9.2910
Atom 5.7668 0.8443 5.4782
Atom 5.6692 1.3674 2.8783
Atom 6.3566 5.7683 1.7224
Atom 0.7808 3.3035 2.9526
Atom 2.1973 0.6259 8.8810
Atom 7.4125 2.7033 1.0274
Atom 3.8347 7.1041 1.4996
Atom 7.4786 0.1487 6.6472
Atom 6.1102 3.9368 3.2425
Atom 4.5498 1.8761 0.6316
Atom 3.2353 0.1157 0.7578
Atom 2.8176 3.7631 8.7546
Atom 3.9351 9.8507 4.8016
Atom 2.6801 8.2192 7.1851
Atom 2.7443 3.1456 2.9653
Atom 6.8732 0.0592 4.0631
Atom 5.4999 9.4777 3.4013
Atom 5.4745 5.3727 6.9836
Atom 6.7401 1.5229 7.6508
Atom 1.5232 2.1040 1.4904
Atom 3.3902 7.6616 5.5818
Atom 5.6171 4.0533 0.4094
Atom 1.7227 2.7503 6.4645
Atom 8.0317 4.1499 1.3905
Atom 0.0000 5.4323 2.6651
Atom 9.8420 4.3005 5.6789
Atom 8.9715 2.1185 1.6773
100
Step 80
Atom 4.1248 9.2093 0.8594
Atom 0.3639 9.9590 3.9067
Atom 2.4349 8.4563 8.6480
Atom 4.7820 5.1739 9.7605
Atom 3.9048 6.1463 9.7698
Atom 9.3641 8.4453 6.3176
Atom 2.8400 0.5477 7.7983
Atom 7.3034 6.1683 9.9496
Atom 2.9084 9.8329 5.0366
Atom 1.6524 8.1683 3.9040
Atom 2.7230 5.8702 3.8390
Atom 7.4718 0.7667 7.7402
Atom 3.7385 2.8025 5.8190
Atom 7.2983 4.3359 5.1033
Atom 5.8404 4.3969 7.2901
Atom 5.8458 5.2030 0.2070
Atom 2.7435 3.3919 9.4766
Atom 1.0521 9.7537 3.8441
Atom 5.2073 7.0726 9.6339
Atom 6.9930 7.3595 6.3091
Atom 3.0031 6.9961 7.4452
Atom 0.1362 1.6887 2.6766
Atom 7.8370 0.0760 0.6885
Atom 6.5525 0.2078 2.5069
Atom 7.7538 2.5301 7.4352
Atom 6.6029 0.0919 3.7768
Atom 3.1401 1.8918 1.1220
Atom 4.3124 5.7976 5.1948
Atom 9.6157 3.3318 2.5618
Atom 2.9993 6.2662 1.2423
Atom 6.9051 9.6958 6.2156
Atom 8.4274 7.2801 1.5668
Atom 9.2143 3.3769 4.6810
Atom 6.3901 2.6696 5.7712
Atom 6.3884 8.0301 0.4754
Atom 4.2516 5.0827 3.2355
Atom 9.3451 4.6927 3.8081
Atom 4.7807 1.4636 6.7224
Atom 2.6701 7.1548 9.6826
Atom 5.6068 3.3030 2.8160
Atom 8.2948 4.9501 7.4901
Atom 3.3358 1.3926 2.9795
Atom 7.4113 8.2105 4.0670
Atom 2.9383 9.0346 3.7742
Atom 1.8573 9.0389 3.5911
Atom 9.0619 5.1196 4.3252
Atom 4.7250 8.8449 2.5878
Atom 9.0656 1.8965 4.3235
Atom 5.2235 8.0691 8.9192
Atom 7.8353 7.3294 0.1313
Atom 4.4235 5.4535 0.6658
Atom 6.6118 2.9733 8.0075
Atom 8.8756 4.2239 0.0625
Atom 4.2274 6.6438 7.7352
Atom 3.3909 2.2732 1.6204
Atom 1.1479 4.2821 4.5297
Atom 1.0146 8.9080 1.8307
Atom 6.1606 9.1283 4.7515
Atom 4.9422 7.4080 6.2155
Atom 3.6245 1.3881 5.6908
Atom 6.5154 8.8464 2.6948
Atom 7.6016 1.2992 2.1286
Atom 4.0027 2.8231 2.9300
Atom 5.7183 1.8662 7.6856
Atom 1.7291 9.6694 7.6040
Atom 5.9793 5.6783 1.6961
Atom 2.7128 0.5257 5.8751
Atom 6.4576 5.0319 8.2471
Atom 9.7652 4.5200 4.5592
Atom 5.4938 8.5074 1.3594
Atom 4.2272 2.7549 9.5099
Atom 4.4220 5.5742 3.3060
Atom 1.0084 3.7412 9.3317
Atom 5.7354 0.9037 5.5646
Atom 5.7129 1.3721 2.9188
Atom 6.3912 5.6400 1.6528
Atom 0.7136 3.3986 3.0006
Atom 2.2021 0.6771 8.9110
Atom 7.4974 2.6748 1.0482
Atom 3.8956 7.0478 1.4613
Atom 7.4383 0.1200 6.6552
Atom 6.0884 4.0316 3.3192
Atom 4.5330 1.8710 0.5919
Atom 3.2776 0.0652 0.7640
Atom 2.9024 3.8360 8.8647
Atom 3.9185 9.8353 4.7315
Atom 2.5806 8.2304 7.1533
Atom 2.7640 3.1620 2.9565
Atom 6.9058 0.0831 3.9922
Atom 5.5433 9.5295 3.3654
Atom 5.4920 5.4357 6.9862
Atom 6.7307 1.4503 7.6173
Atom 1.4647 2.1382 1.4820
Atom 3.3928 7.7083 5.5449
Atom 5.4823 4.0038 0.3986
Atom 1.6746 2.7462 6.4838
Atom 8.0570 4.1496 1.4889
Atom 9.9271 5.4865 2.6534
Atom 9.8047 4.2824 5.6892
Atom 8.8887 2.1402 1.7147
100
Step 90
Atom 4.1079 9.2137 0.9019
Atom 0.3703 9.9182 3.9651
Atom 2.4060 8.5103 8.5889
Atom 4.8611 5.2298 9.7430
Atom 3.8052 6.1585 9.7842
Atom 9.3424 8.4308 6.3345
Atom 2.7855 0.5078 7.7512
Atom 7.1371 6.2088 0.0065
Atom 2.8561 9.9010 5.0368
Atom 1.6467 8.1453 3.8382
Atom 2.6987 5.9275 3.8607
Atom 7.5028 0.7194 7.7899
Atom 3.7981 2.7981 5.8383
Atom 7.3077 4.2999 5.1201
Atom 5.7516 4.3889 7.2858
Atom 5.9913 5.2862 0.2200
Atom 2.7540 3.3668 9.4449
Atom 1.1351 9.7593 3.8108
Atom 5.2160 7.1557 9.5857
Atom 6.9728 7.3364 6.1999
Atom 3.0170 6.9530 7.4440
Atom 0.2386 1.6690 2.6167
Atom 7.8066 0.0193 0.7484
Atom 6.4802 0.2090 2.4450
Atom 7.7769 2.5107 7.3967
Atom 6.5606 0.0772 3.7756
Atom 3.1296 1.8454 1.1537
Atom 4.3028 5.8279 5.2786
Atom 9.6163 3.3170 2.5455
Atom 2.9684 6.1956 1.2228
Atom 6.8956 9.7062 6.2222
Atom 8.4429 7.2670 1.5431
Atom 9.2675 3.3467 4.6703
Atom 6.3807 2.7214 5.8073
Atom 6.3559 8.0182 0.4911
Atom 4.2094 5.1349 3.2525
Atom 9.4304 4.6805 3.8637
Atom 4.8326 1.4346 6.7339
Atom 2.7115 7.2223 9.6802
Atom 5.6687 3.2823 2.7077
Atom 8.3053 4.8405 7.4637
Atom 3.3599 1.4107 3.0337
Atom 7.3000 8.1697 4.0121
Atom 2.9468 9.0461 3.8232
Atom 1.8539 8.9930 3.5570
Atom 9.0487 5.1157 4.2730
Atom 4.7144 8.6939 2.6249
Atom 9.0474 1.8829 4.3108
Atom 5.2070 8.0405 8.9068
Atom 7.8975 7.3503 0.1063
Atom 4.4233 5.4618 0.6757
Atom 6.7420 3.0065 7.9608
Atom 8.8645 4.2057 0.0234
Atom 4.2712 6.6701 7.6540
Atom 3.3673 2.3164 1.5596
Atom 1.1802 4.2279 4.5599
Atom 1.0763 8.9414 1.8250
Atom 6.1841 9.1024 4.8381
Atom 4.9494 7.4821 6.1998
Atom 3.6860 1.3756 5.6030
Atom 6.4757 8.8375 2.7419
Atom 7.5778 1.2767 2.1100
Atom 4.0000 2.8011 2.9441
Atom 5.7011 1.8672 7.7257
Atom 1.7704 9.6934 7.6709
Atom 5.9695 5.6260 1.7074
Atom 2.7381 0.5268 5.8703
Atom 6.4146 5.0584 8.2454
Atom 9.8069 4.5437 4.6609
Atom 5.4379 8.5473 1.3700
Atom 4.2574 2.6853 9.5260
Atom 4.3504 5.5848 3.2827
Atom 1.0156 3.7155 9.3726
Atom 5.7037 0.9632 5.6503
Atom 5.7565 1.3767 2.9593
Atom 6.4254 5.5119 1.5830
Atom 0.6462 3.4937 3.0487
Atom 2.2070 0.7286 8.9411
Atom 7.5822 2.6463 1.0691
Atom 3.9610 6.9888 1.4236
Atom 7.3979 0.0914 6.6631
Atom 6.0667 4.1262 3.3958
Atom 4.5162 1.8660 0.5527
Atom 3.3203 0.0140 0.7713
Atom 2.9880 3.9092 8.9752
Atom 3.9021 9.8199 4.6614
Atom 2.4811 8.2417 7.1214
Atom 2.7838 3.1784 2.9477
Atom 6.9383 0.1071 3.9214
Atom 5.5860 9.5817 3.3297
Atom 5.5096 5.4986 6.9889
Atom 6.7212 1.3777 7.5837
Atom 1.4061 2.1723 1.4735
Atom 3.3955 7.7551 5.5079
Atom 5.3473 3.9542 0.3877
Atom 1.6265 2.7420 6.5030
Atom 8.0817 4.1500 1.5879
Atom 9.8541 5.5407 2.6417
Atom 9.7674 4.2643 5.6994
Atom 8.8059 2.1620 1.7522
100
Step 100
Atom 4.0932 9.2171 0.9434
Atom 0.3767 9.8773 4.0236
Atom 2.3772 8.5643 8.5298
Atom 4.9402 5.2859 9.7254
Atom 3.7056 6.1707 9.7987
Atom 9.3205 8.4164 6.3513
Atom 2.7310 0.4679 7.7041
Atom 6.9639 6.2418 0.0642
Atom 2.8038 9.9692 5.0372
Atom 1.6411 8.1224 3.7724
Atom 2.6745 5.9850 3.8823
Atom 7.5338 0.6721 7.8396
Atom 3.8579 2.7935 5.8575
Atom 7.3173 4.2638 5.1371
Atom 5.6627 4.3808 7.2815
Atom 6.1369 5.3696 0.2332
Atom 2.7652 3.3415 9.4137
Atom 1.2182 9.7650 3.7775
Atom 5.2248 7.2387 9.5377
Atom 6.9526 7.3133 6.0907
Atom 3.0311 6.9100 7.4428
Atom 0.3411 1.6494 2.5568
Atom 7.7758 9.9626 0.8087
Atom 6.4074 0.2099 2.3837
Atom 7.7998 2.4913 7.3579
Atom 6.5148 0.0622 3.7745
Atom 3.1191 1.7989 1.1853
Atom 4.2932 5.8582 5.3626
Atom 9.6168 3.3021 2.5292
Atom 2.9376 6.1250 1.2033
Atom 6.8859 9.7166 6.2287
Atom 8.4582 7.2538 1.5196
Atom 9.3207 3.3164 4.6595
Atom 6.3713 2.7731 5.8434
Atom 6.3233 8.0062 0.5068
Atom 4.1674 5.1881 3.2669
Atom 9.5156 4.6683 3.9193
Atom 4.8847 1.4054 6.7454
Atom 2.7530 7.2897 9.6778
Atom 5.7306 3.2617 2.5993
Atom 8.3124 4.7300 7.4363
Atom 3.3840 1.4286 3.0880
Atom 7.1886 8.1290 3.9572
Atom 2.9555 9.0577 3.8722
Atom 1.8507 8.9470 3.5230
Atom 9.0355 5.1116 4.2208
Atom 4.7040 8.5431 2.6621
Atom 9.0291 1.8696 4.2977
Atom 5.1904 8.0118 8.8944
Atom 7.9596 7.3710 0.0814
Atom 4.4231 5.4700 0.6856
Atom 6.8723 3.0398 7.9141
Atom 8.8532 4.1876 9.9844
Atom 4.3153 6.6957 7.5735
Atom 3.3439 2.3596 1.4988
Atom 1.2126 4.1736 4.5898
Atom 1.1383 8.9750 1.8194
Atom 6.2076 9.0765 4.9247
Atom 4.9566 7.5562 6.1840
Atom 3.7475 1.3630 5.5152
Atom 6.4359 8.8287 2.7888
Atom 7.5540 1.2541 2.0915
Atom 3.9973 2.7791 2.9582
Atom 5.6839 1.8683 7.7657
Atom 1.8118 9.7173 7.7377
Atom 5.9597 5.5737 1.7185
Atom 2.7634 0.5276 5.8646
Atom 6.3708 5.0851 8.2443
Atom 9.8486 4.5674 4.7625
Atom 5.3820 8.5871 1.3807
Atom 4.2879 2.6159 9.5419
Atom 4.2791 5.5940 3.2547
Atom 1.0229 3.6897 9.4136
Atom 5.6716 1.0229 5.7355
Atom 5.8000 1.3812 2.9998
Atom 6.4594 5.3841 1.5132
Atom 0.5786 3.5888 3.0968
Atom 2.2120 0.7801 8.9712
Atom 7.6668 2.6178 1.0901
Atom 4.0304 6.9275 1.3857
Atom 7.3574 0.0627 6.6710
Atom 6.0451 4.2206 3.4722
Atom 4.4992 1.8612 0.5140
Atom 3.3634 9.9619 0.7798
Atom 3.0746 3.9825 9.0863
Atom 3.8857 9.8046 4.5913
Atom 2.3817 8.2531 7.0894
Atom 2.8035 3.1950 2.9390
Atom 6.9708 0.1314 3.8507
Atom 5.6280 9.6344 3.2941
Atom 5.5273 5.5616 6.9917
Atom 6.7116 1.3052 7.5502
Atom 1.3476 2.2065 1.4650
Atom 3.3982 7.8019 5.4709
Atom 5.2123 3.9046 0.3769
Atom 1.5784 2.7378 6.5222
Atom 8.1056 4.1507 1.6875
Atom 9.7811 5.5949 2.6300
Atom 9.7301 4.2462 5.7097
Atom 8.7231 2.1837 1.7898
100
Step 110
Atom 4.0807 9.2200 0.9844
Atom 0.3834 9.8364 4.0821
Atom 2.3486 8.6182 8.4708
Atom 5.0192 5.3419 9.7078
Atom 3.6062 6.1829 9.8130
Atom 9.2984 8.4020 6.3681
Atom 2.6767 0.4282 7.6568
Atom 6.7829 6.2704 0.1229
Atom 2.7516 0.0374 5.0376
Atom 1.6357 8.0995 3.7067
Atom 2.6503 6.0426 3.9037
Atom 7.5647 0.6248 7.8893
Atom 3.9178 2.7889 5.8767
Atom 7.3272 4.2277 5.1543
Atom 5.5739 4.3726 7.2774
Atom 6.2825 5.4533 0.2465
Atom 2.7771 3.3160 9.3829
Atom 1.3014 9.7708 3.7442
Atom 5.2335 7.3216 9.4897
Atom 6.9323 7.2902 5.9815
Atom 3.0453 6.8668 7.4416
Atom 0.4436 1.6298 2.4969
Atom 7.7447 9.9060 0.8695
Atom 6.3338 0.2107 2.3227
Atom 7.8225 2.4719 7.3189
Atom 6.4655 0.0466 3.7757
Atom 3.1087 1.7522 1.2169
Atom 4.2836 5.8886 5.4465
Atom 9.6173 3.2874 2.5130
Atom 2.9070 6.0543 1.1839
Atom 6.8761 9.7271 6.2351
Atom 8.4734 7.2405 1.4960
Atom 9.3738 3.2860 4.6487
Atom 6.3619 2.8248 5.8793
Atom 6.2906 7.9942 0.5226
Atom 4.1257 5.2418 3.2783
Atom 9.6007 4.6559 3.9749
Atom 4.9369 1.3762 6.7569
Atom 2.7947 7.3572 9.6755
Atom 5.7925 3.2411 2.4908
Atom 8.3168 4.6186 7.4076
Atom 3.4081 1.4463 3.1423
Atom 7.0771 8.0882 3.9023
Atom 2.9642 9.0695 3.9212
Atom 1.8476 8.9011 3.4889
Atom 9.0222 5.1075 4.1684
Atom 4.6937 8.3923 2.6995
Atom 9.0106 1.8566 4.2844