100
Step 0
Atom 7.9137 1.3915 6.2534
Atom 4.5375 0.9668 4.3856
Atom 7.4093 9.3535 9.4426
Atom 4.8954 2.3316 9.7854
Atom 2.2635 6.2902 2.2182
Atom 8.3410 7.9592 4.0737
Atom 3.0399 4.2636 3.1266
Atom 2.2594 6.0929 3.8614
Atom 6.3960 9.3999 5.8603
Atom 8.5046 8.1614 8.9018
Atom 2.5641 4.3805 1.0114
Atom 3.1357 8.5604 8.7284
Atom 8.7746 8.2507 9.6846
Atom 2.6466 0.0599 5.2753
Atom 5.9863 4.4191 2.3920
Atom 0.9971 5.3712 6.7176
Atom 4.7048 7.1222 5.2095
Atom 0.7767 3.1054 2.0069
Atom 0.9653 2.7730 8.5748
Atom 0.0544 1.3915 1.6681
Atom 8.3257 2.1022 0.3700
Atom 5.7915 5.8787 1.1252
Atom 8.2508 4.8586 4.1132
Atom 9.5044 8.2626 6.3023
Atom 8.9599 9.1610 2.7808
Atom 6.0910 8.1932 6.8346
Atom 8.7731 2.5890 2.1648
Atom 9.4193 9.7727 9.3398
Atom 5.9607 6.5302 3.4531
Atom 4.3568 2.5912 3.2869
Atom 0.8354 9.6588 5.7588
Atom 2.0745 6.2347 8.9232
Atom 4.8485 3.6418 8.9332
Atom 3.9647 1.3587 5.5822
Atom 0.6478 0.5087 0.3487
Atom 6.3841 6.8784 8.6709
Atom 1.2115 4.5438 8.9283
Atom 1.5430 7.7862 4.2571
Atom 5.3441 1.4622 1.0091
Atom 4.1851 5.7323 3.1576
Atom 1.3008 5.9325 9.6336
Atom 6.3660 8.7935 1.3083
Atom 6.2782 0.8794 0.5071
Atom 5.2208 2.9034 6.0240
Atom 1.4257 6.9977 8.6074
Atom 7.2208 0.3792 0.4772
Atom 0.9473 5.2006 4.8398
Atom 2.1347 7.5479 7.5054
Atom 4.6996 2.2746 4.5332
Atom 5.8977 0.4847 6.2238
Atom 1.2519 4.1677 1.3297
Atom 7.3281 1.3083 1.1993
Atom 2.1485 9.0088 9.8550
Atom 5.6666 8.6817 2.5378
Atom 3.9813 0.6357 9.4284
Atom 4.2500 5.9249 7.6718
Atom 0.1260 2.0937 8.7640
Atom 0.5364 8.1020 1.9406
Atom 0.5898 8.5751 8.3511
Atom 5.5927 5.6882 5.4763
Atom 6.8637 2.9408 5.9158
Atom 0.6310 0.0718 4.3485
Atom 6.7258 3.0421 9.1252
Atom 9.8921 3.0784 4.9309
Atom 1.4708 7.4335 9.9230
Atom 6.5383 4.7576 4.9443
Atom 3.9060 8.6200 6.2614
Atom 0.1637 0.2906 7.8416
Atom 9.1870 9.0527 0.4401
Atom 8.3579 5.7226 7.7433
Atom 9.2122 2.7239 5.7124
Atom 8.5576 6.3500 1.5218
Atom 2.5169 5.2625 0.8706
Atom 0.7815 5.9972 4.7469
Atom 3.6529 8.5422 4.5804
Atom 2.8880 1.8994 6.5591
Atom 8.4654 3.6734 0.4323
Atom 1.4543 1.6984 0.3320
Atom 9.2670 7.0717 1.6167
Atom 0.8175 6.9032 0.5007
Atom 7.8318 7.5969 2.5293
Atom 9.2250 3.8210 9.9117
Atom 7.6154 9.1142 2.2493
Atom 4.1226 2.7840 4.7550
Atom 8.0594 3.5942 3.3363
Atom 5.1098 4.5168 8.3523
Atom 0.8812 2.7165 4.9022
Atom 2.9062 2.6300 7.9481
Atom 7.2468 6.7820 7.7435
Atom 4.6757 7.3689 6.7622
Atom 1.7159 0.6492 7.7662
Atom 2.5184 4.0964 5.9972
Atom 9.3852 1.7537 1.9883
Atom 2.8573 1.3405 2.3547
Atom 0.2407 3.4057 3.2708
Atom 3.5534 9.4979 0.4522
Atom 3.7717 9.4480 8.0657
Atom 6.4237 5.4308 6.9289
Atom 0.1868 7.6986 0.9880
Atom 7.6205 8.8546 7.1916
100
Step 10
Atom 7.8933 1.3795 6.0889
Atom 4.6297 0.9878 4.4420
Atom 7.5670 9.5965 9.4452
Atom 4.7483 2.2719 9.7496
Atom 2.3913 6.3687 2.1772
Atom 8.2674 7.9921 4.0896
Atom 2.9090 4.3936 3.1252
Atom 2.0890 5.9869 3.9875
Atom 6.4117 9.5194 5.7367
Atom 8.4292 8.2111 9.0304
Atom 2.5797 4.2792 0.8721
Atom 2.9141 8.6276 8.6645
Atom 8.7547 8.3843 9.5828
Atom 2.6820 0.1265 5.3674
Atom 5.8379 4.3693 2.3572
Atom 0.9875 5.4308 7.0046
Atom 4.6722 7.3187 5.1226
Atom 0.8031 3.0922 1.9404
Atom 0.9123 2.6719 8.6090
Atom 0.0687 1.3605 1.7040
Atom 8.3966 1.9308 0.4436
Atom 5.9452 5.8147 1.1400
Atom 8.1431 5.0526 4.2166
Atom 9.7487 8.1845 6.2024
Atom 8.9527 9.1279 2.8683
Atom 6.3456 8.3395 6.8210
Atom 8.8778 2.3602 2.3428
Atom 9.4784 9.8083 9.4126
Atom 5.8916 6.4646 3.4498
Atom 4.4198 2.7638 3.3486
Atom 0.9416 9.7110 5.6593
Atom 2.1635 6.1829 8.8172
Atom 4.9211 3.8390 9.0368
Atom 4.0793 1.1142 5.6408
Atom 0.5518 0.6860 0.2644
Atom 6.3868 6.7651 8.5425
Atom 1.1494 4.5834 8.9149
Atom 1.6167 7.6956 4.2815
Atom 5.1870 1.2134 1.0009
Atom 4.3175 6.0139 3.2868
Atom 1.4406 5.7625 9.4745
Atom 6.5470 9.0221 1.1303
Atom 6.3166 0.9107 0.3692
Atom 5.2517 2.7921 5.8356
Atom 1.4883 6.7445 8.6159
Atom 7.1259 0.4203 0.5500
Atom 0.8671 5.2285 4.8660
Atom 2.1933 7.5077 7.3110
Atom 4.6347 2.2248 4.5114
Atom 5.8729 0.4561 6.2784
Atom 1.1808 4.3648 1.4193
Atom 7.1598 1.3392 1.4072
Atom 1.9783 8.9813 9.7332
Atom 5.6660 8.7403 2.5211
Atom 4.0286 0.6139 9.3513
Atom 4.0354 5.9343 7.6903
Atom 0.0456 2.0579 8.7805
Atom 0.6512 8.0476 2.0707
Atom 0.5480 8.5446 8.3601
Atom 5.7825 5.6035 5.5395
Atom 6.7894 2.9523 5.7859
Atom 0.5613 0.0174 4.4055
Atom 6.7643 3.1358 9.2696
Atom 9.9916 3.2757 5.0276
Atom 1.2159 7.1686 9.9258
Atom 6.4442 4.6755 5.1068
Atom 3.7321 8.6203 6.1916
Atom 0.0027 0.2841 7.9716
Atom 9.2855 8.9887 0.4430
Atom 8.3637 5.7394 7.8026
Atom 9.3314 2.6275 5.5274
Atom 8.4541 6.1225 1.5026
Atom 2.5378 5.2636 0.9589
Atom 0.7461 5.9535 4.7163
Atom 3.5358 8.5510 4.6632
Atom 3.0203 1.9748 6.4025
Atom 8.6789 3.6879 0.3093
Atom 1.6226 1.6762 0.4031
Atom 9.2603 7.0287 1.6165
Atom 0.8422 6.8102 0.5131
Atom 7.8924 7.5152 2.6051
Atom 9.3701 4.0391 9.8951
Atom 7.6834 9.3065 2.2116
Atom 4.1876 2.6493 4.6595
Atom 8.0799 3.4161 3.3698
Atom 5.0188 4.3749 8.4710
Atom 0.9468 2.6083 4.7980
Atom 2.9335 2.5544 7.9722
Atom 7.0200 6.8052 7.6479
Atom 4.6648 7.5659 6.6153
Atom 1.6071 0.7438 7.7353
Atom 2.6206 4.0611 5.8559
Atom 9.2694 1.7249 2.0192
Atom 2.8459 1.3301 2.4022
Atom 0.0718 3.5677 3.5880
Atom 3.5183 9.6619 0.5187
Atom 3.7614 9.4879 8.0890
Atom 6.3820 5.3079 6.7366
Atom 0.3596 7.7893 0.9348
Atom 7.6073 8.8216 7.3013
100
Step 20
Atom 7.8730 1.3674 5.9245
Atom 4.7218 1.0086 4.4986
Atom 7.7248 9.8397 9.4481
Atom 4.6010 2.2122 9.7137
Atom 2.5186 6.4472 2.1360
Atom 8.1938 8.0250 4.1055
Atom 2.7778 4.5232 3.1242
Atom 1.9186 5.8808 4.1135
Atom 6.4270 9.6389 5.6130
Atom 8.3540 8.2605 9.1592
Atom 2.5952 4.1778 0.7326
Atom 2.6924 8.6945 8.6003
Atom 8.7348 8.5178 9.4812
Atom 2.7174 0.1932 5.4596
Atom 5.6897 4.3193 2.3226
Atom 0.9779 5.4904 7.2917
Atom 4.6397 7.5153 5.0358
Atom 0.8295 3.0791 1.8738
Atom 0.8592 2.5706 8.6434
Atom 0.0828 1.3293 1.7398
Atom 8.4677 1.7590 0.5171
Atom 6.0990 5.7508 1.1548
Atom 8.0355 5.2465 4.3200
Atom 9.9930 8.1063 6.1024
Atom 8.9456 9.0950 2.9555
Atom 6.6000 8.4856 6.8073
Atom 8.9826 2.1313 2.5207
Atom 9.5377 9.8440 9.4859
Atom 5.8227 6.3990 3.4466
Atom 4.4829 2.9365 3.4105
Atom 1.0480 9.7631 5.5598
Atom 2.2525 6.1313 8.7112
Atom 4.9935 4.0363 9.1403
Atom 4.1939 0.8694 5.6994
Atom 0.4558 0.8633 0.1799
Atom 6.3895 6.6520 8.4142
Atom 1.0874 4.6230 8.9019
Atom 1.6903 7.6053 4.3061
Atom 5.0299 0.9645 0.9928
Atom 4.4500 6.2954 3.4160
Atom 1.5802 5.5927 9.3154
Atom 6.7283 9.2506 0.9521
Atom 6.3551 0.9420 0.2312
Atom 5.2826 2.6809 5.6472
Atom 1.5508 6.4915 8.6247
Atom 7.0315 0.4613 0.6226
Atom 0.7870 5.2564 4.8921
Atom 2.2521 7.4677 7.1166
Atom 4.5698 2.1750 4.4896
Atom 5.8478 0.4274 6.3330
Atom 1.1095 4.5620 1.5087
Atom 6.9918 1.3701 1.6149
Atom 1.8077 8.9536 9.6111
Atom 5.6656 8.7989 2.5045
Atom 4.0757 0.5922 9.2742
Atom 3.8209 5.9438 7.7087
Atom 9.9652 2.0223 8.7971
Atom 0.7657 7.9932 2.2006
Atom 0.5062 8.5141 8.3694
Atom 5.9722 5.5188 5.6027
Atom 6.7150 2.9639 5.6557
Atom 0.4916 9.9630 4.4626
Atom 6.8029 3.2293 9.4142
Atom 0.0911 3.4731 5.1240
Atom 0.9609 6.9035 9.9286
Atom 6.3499 4.5934 5.2690
Atom 3.5582 8.6208 6.1221
Atom 9.8416 0.2773 8.1017
Atom 9.3841 8.9249 0.4460
Atom 8.3699 5.7563 7.8621
Atom 9.4504 2.5312 5.3421
Atom 8.3509 5.8950 1.4833
Atom 2.5584 5.2648 1.0470
Atom 0.7107 5.9095 4.6856
Atom 3.4187 8.5600 4.7460
Atom 3.1526 2.0500 6.2456
Atom 8.8928 3.7021 0.1865
Atom 1.7909 1.6539 0.4739
Atom 9.2537 6.9858 1.6161
Atom 0.8666 6.7174 0.5253
Atom 7.9529 7.4336 2.6806
Atom 9.5153 4.2573 9.8787
Atom 7.7516 9.4990 2.1735
Atom 4.2525 2.5148 4.5640
Atom 8.1004 3.2380 3.4034
Atom 4.9276 4.2330 8.5897
Atom 1.0126 2.5000 4.6936
Atom 2.9611 2.4788 7.9964
Atom 6.7931 6.8285 7.5523
Atom 4.6539 7.7630 6.4687
Atom 1.4986 0.8379 7.7048
Atom 2.7229 4.0258 5.7146
Atom 9.1536 1.6961 2.0500
Atom 2.8345 1.3198 2.4497
Atom 9.9030 3.7298 3.9049
Atom 3.4832 9.8262 0.5854
Atom 3.7510 9.5278 8.1119
Atom 6.3400 5.1849 6.5442
Atom 0.5323 7.8799 0.8813
Atom 7.5942 8.7886 7.4111
100
Step 30
Atom 7.8527 1.3553 5.7600
Atom 4.8139 1.0293 4.5552
Atom 7.8827 0.0831 9.4511
Atom 4.4536 2.1524 9.6779
Atom 2.6457 6.5258 2.0947
Atom 8.1203 8.0578 4.1214
Atom 2.6465 4.6527 3.1235
Atom 1.7483 5.7745 4.2395
Atom 6.4420 9.7583 5.4893
Atom 8.2787 8.3099 9.2880
Atom 2.6107 4.0765 0.5930
Atom 2.4703 8.7613 8.5359
Atom 8.7150 8.6514 9.3800
Atom 2.7528 0.2600 5.5520
Atom 5.5415 4.2693 2.2881
Atom 0.9683 5.5500 7.5786
Atom 4.6074 7.7120 4.9493
Atom 0.8558 3.0661 1.8070
Atom 0.8059 2.4693 8.6780
Atom 0.0968 1.2979 1.7755
Atom 8.5389 1.5871 0.5905
Atom 6.2528 5.6869 1.1695
Atom 7.9280 5.4407 4.4234
Atom 0.2375 8.0280 6.0023
Atom 8.9385 9.0622 3.0420
Atom 6.8544 8.6317 6.7937
Atom 9.0874 1.9024 2.6985
Atom 9.5970 9.8797 9.5594
Atom 5.7541 6.3334 3.4436
Atom 4.5459 3.1091 3.4725
Atom 1.1547 9.8151 5.4605
Atom 2.3415 6.0800 8.6055
Atom 5.0657 4.2338 9.2438
Atom 4.3084 0.6244 5.7582
Atom 0.3598 1.0404 0.0954
Atom 6.3921 6.5391 8.2857
Atom 1.0253 4.6627 8.8894
Atom 1.7639 7.5150 4.3309
Atom 4.8727 0.7156 0.9849
Atom 4.5825 6.5768 3.5453
Atom 1.7197 5.4230 9.1564
Atom 6.9102 9.4790 0.7738
Atom 6.3936 0.9731 0.0932
Atom 5.3135 2.5699 5.4589
Atom 1.6134 6.2387 8.6337
Atom 6.9375 0.5022 0.6953
Atom 0.7068 5.2843 4.9179
Atom 2.3109 7.4280 6.9220
Atom 4.5049 2.1253 4.4680
Atom 5.8225 0.3986 6.3876
Atom 1.0378 4.7592 1.5980
Atom 6.8238 1.4010 1.8226
Atom 1.6368 8.9259 9.4888
Atom 5.6654 8.8575 2.4879
Atom 4.1226 0.5707 9.1969
Atom 3.6064 5.9532 7.7271
Atom 9.8849 1.9867 8.8140
Atom 0.8801 7.9387 2.3304
Atom 0.4645 8.4837 8.3789
Atom 6.1618 5.4341 5.6661
Atom 6.6403 2.9755 5.5252
Atom 0.4220 9.9087 4.5196
Atom 6.8416 3.3225 9.5589
Atom 0.1905 3.6707 5.2203
Atom 0.7058 6.6383 9.9317
Atom 6.2554 4.5113 5.4310
Atom 3.3843 8.6214 6.0526
Atom 9.6805 0.2702 8.2321
Atom 9.4828 8.8611 0.4491
Atom 8.3763 5.7732 7.9217
Atom 9.5694 2.4349 5.1567
Atom 8.2480 5.6674 1.4637
Atom 2.5788 5.2662 1.1348
Atom 0.6752 5.8654 4.6550
Atom 3.3017 8.5691 4.8290
Atom 3.2847 2.1250 6.0887
Atom 9.1073 3.7162 0.0642
Atom 1.9592 1.6316 0.5444
Atom 9.2471 6.9432 1.6157
Atom 0.8907 6.6247 0.5371
Atom 8.0134 7.3522 2.7559
Atom 9.6608 4.4755 9.8624
Atom 7.8202 9.6917 2.1350
Atom 4.3175 2.3803 4.4683
Atom 8.1209 3.0598 3.4372
Atom 4.8364 4.0912 8.7081
Atom 1.0786 2.3915 4.5891
Atom 2.9888 2.4032 8.0208
Atom 6.5660 6.8518 7.4565
Atom 4.6431 7.9601 6.3223
Atom 1.3903 0.9314 7.6747
Atom 2.8250 3.9906 5.5730
Atom 9.0377 1.6671 2.0806
Atom 2.8233 1.3097 2.4974
Atom 9.7344 3.8921 4.2216
Atom 3.4481 9.9906 0.6519
Atom 3.7404 9.5676 8.1345
Atom 6.2979 5.0619 6.3519
Atom 0.7049 7.9706 0.8274
Atom 7.5812 8.7556 7.5210
100
Step 40
Atom 7.8324 1.3433 5.5954
Atom 4.9059 1.0498 4.6118
Atom 8.0409 0.3266 9.4543
Atom 4.3061 2.0925 9.6423
Atom 2.7724 6.6045 2.0534
Atom 8.0467 8.0905 4.1373
Atom 2.5150 4.7820 3.1230
Atom 1.5780 5.6682 4.3655
Atom 6.4567 9.8774 5.3654
Atom 8.2036 8.3591 9.4170
Atom 2.6262 3.9753 0.4532
Atom 2.2481 8.8281 8.4715
Atom 8.6955 8.7849 9.2791
Atom 2.7882 0.3268 5.6445
Atom 5.3932 4.2192 2.2538
Atom 0.9586 5.6097 7.8656
Atom 4.5751 7.9088 4.8629
Atom 0.8819 3.0533 1.7401
Atom 0.7523 2.3680 8.7128
Atom 0.1105 1.2661 1.8110
Atom 8.6101 1.4150 0.6639
Atom 6.4066 5.6230 1.1841
Atom 7.8205 5.6351 4.5266
Atom 0.4820 7.9495 5.9023
Atom 8.9315 9.0296 3.1279
Atom 7.1088 8.7776 6.7802
Atom 9.1923 1.6733 2.8765
Atom 9.6564 9.9153 9.6334
Atom 5.6859 6.2679 3.4408
Atom 4.6089 3.2818 3.5346
Atom 1.2616 9.8669 5.3612
Atom 2.4305 6.0287 8.5001
Atom 5.1378 4.4315 9.3473
Atom 4.4228 0.3791 5.8172
Atom 0.2637 1.2173 0.0108
Atom 6.3947 6.4263 8.1572
Atom 0.9632 4.7025 8.8773
Atom 1.8376 7.4249 4.3560
Atom 4.7154 0.4668 0.9772
Atom 4.7149 6.8581 3.6748
Atom 1.8591 5.2533 8.9975
Atom 7.0926 9.7074 0.5954
Atom 6.4323 1.0041 9.9553
Atom 5.3444 2.4591 5.2707
Atom 1.6759 5.9862 8.6430
Atom 6.8438 0.5429 0.7679
Atom 0.6269 5.3123 4.9438
Atom 2.3695 7.3885 6.7272
Atom 4.4401 2.0755 4.4466
Atom 5.7970 0.3697 6.4423
Atom 0.9658 4.9567 1.6870
Atom 6.6560 1.4320 2.0303
Atom 1.4657 8.8981 9.3664
Atom 5.6653 8.9161 2.4714
Atom 4.1693 0.5491 9.1196
Atom 3.3919 5.9626 7.7455
Atom 9.8047 1.9513 8.8313
Atom 0.9943 7.8842 2.4600
Atom 0.4231 8.4531 8.3886
Atom 6.3512 5.3494 5.7294
Atom 6.5653 2.9869 5.3942
Atom 0.3525 9.8547 4.5765
Atom 6.8804 3.4155 9.7039
Atom 0.2900 3.8684 5.3164
Atom 0.4507 6.3733 9.9349
Atom 6.1608 4.4292 5.5927
Atom 3.2102 8.6221 5.9833
Atom 9.5193 0.2629 8.3628
Atom 9.5814 8.7974 0.4524
Atom 8.3830 5.7902 7.9814
Atom 9.6885 2.3384 4.9712
Atom 8.1455 5.4396 1.4441
Atom 2.5988 5.2676 1.2222
Atom 0.6398 5.8215 4.6243
Atom 3.1846 8.5783 4.9121
Atom 3.4167 2.1999 5.9318
Atom 9.3223 3.7304 9.9422
Atom 2.1275 1.6093 0.6145
Atom 9.2404 6.9008 1.6151
Atom 0.9146 6.5321 0.5486
Atom 8.0737 7.2706 2.8311
Atom 9.8067 4.6937 9.8461
Atom 7.8892 9.8844 2.0961
Atom 4.3826 2.2458 4.3727
Atom 8.1412 2.8816 3.4711
Atom 4.7450 3.9495 8.8265
Atom 1.1450 2.2828 4.4845
Atom 3.0166 2.3277 8.0453
Atom 6.3388 6.8753 7.3607
Atom 4.6325 8.1575 6.1761
Atom 1.2823 1.0243 7.6447
Atom 2.9268 3.9554 5.4311
Atom 8.9218 1.6380 2.1110
Atom 2.8122 1.2998 2.5454
Atom 9.5659 4.0542 4.5380
Atom 3.4129 0.1551 0.7181
Atom 3.7295 9.6076 8.1569
Atom 6.2557 4.9388 6.1596
Atom 0.8772 8.0615 0.7730
Atom 7.5683 8.7228 7.6308
100
Step 50
Atom 7.8120 1.3312 5.4306
Atom 4.9979 1.0704 4.6683
Atom 8.1993 0.5702 9.4578
Atom 4.1585 2.0327 9.6069
Atom 2.8990 6.6831 2.0124
Atom 7.9730 8.1235 4.1533
Atom 2.3834 4.9112 3.1227
Atom 1.4075 5.5620 4.4913
Atom 6.4712 9.9964 5.2415
Atom 8.1286 8.4084 9.5459
Atom 2.6417 3.8741 0.3132
Atom 2.0258 8.8949 8.4071
Atom 8.6762 8.9185 9.1784
Atom 2.8236 0.3938 5.7371
Atom 5.2448 4.1690 2.2195
Atom 0.9487 5.6696 8.1525
Atom 4.5428 8.1059 4.7767
Atom 0.9080 3.0404 1.6731
Atom 0.6988 2.2669 8.7480
Atom 0.1241 1.2341 1.8464
Atom 8.6815 1.2429 0.7372
Atom 6.5605 5.5589 1.1985
Atom 7.7132 5.8294 4.6297
Atom 0.7267 7.8709 5.8023
Atom 8.9247 8.9973 3.2134
Atom 7.3632 8.9235 6.7668
Atom 9.2973 1.4441 3.0545
Atom 9.7158 9.9511 9.7076
Atom 5.6179 6.2024 3.4382
Atom 4.6717 3.4544 3.5970
Atom 1.3687 9.9190 5.2621
Atom 2.5192 5.9776 8.3952
Atom 5.2096 4.6294 9.4508
Atom 4.5372 0.1337 5.8764
Atom 0.1675 1.3941 9.9263
Atom 6.3973 6.3136 8.0284
Atom 0.9012 4.7423 8.8653
Atom 1.9115 7.3347 4.3810
Atom 4.5580 0.2180 0.9696
Atom 4.8471 7.1396 3.8043
Atom 1.9985 5.0835 8.8387
Atom 7.2753 9.9358 0.4171
Atom 6.4711 1.0349 9.8175
Atom 5.3755 2.3482 5.0825
Atom 1.7382 5.7339 8.6526
Atom 6.7504 0.5835 0.8406
Atom 0.5472 5.3405 4.9696
Atom 2.4279 7.3490 6.5325
Atom 4.3752 2.0258 4.4252
Atom 5.7711 0.3407 6.4970
Atom 0.8936 5.1543 1.7758
Atom 6.4883 1.4631 2.2382
Atom 1.2944 8.8705 9.2438
Atom 5.6653 8.9747 2.4551
Atom 4.2158 0.5274 9.0421
Atom 3.1776 5.9719 7.7639
Atom 9.7245 1.9158 8.8488
Atom 1.1083 7.8297 2.5896
Atom 0.3819 8.4221 8.3981
Atom 6.5405 5.2650 5.7928
Atom 6.4899 2.9979 5.2629
Atom 0.2832 9.8010 4.6334
Atom 6.9194 3.5085 9.8492
Atom 0.3896 4.0661 5.4126
Atom 0.1955 6.1087 9.9381
Atom 6.0661 4.3471 5.7543
Atom 3.0359 8.6228 5.9140
Atom 9.3580 0.2550 8.4940
Atom 9.6800 8.7339 0.4560
Atom 8.3901 5.8072 8.0414
Atom 9.8077 2.2418 4.7856
Atom 8.0434 5.2117 1.4244
Atom 2.6185 5.2691 1.3093
Atom 0.6044 5.7775 4.5935
Atom 3.0675 8.5874 4.9951
Atom 3.5486 2.2748 5.7748
Atom 9.5373 3.7446 9.8205
Atom 2.2959 1.5870 0.6841
Atom 9.2338 6.8584 1.6146
Atom 0.9385 6.4396 0.5596
Atom 8.1339 7.1892 2.9062
Atom 9.9527 4.9118 9.8296
Atom 7.9585 0.0770 2.0569
Atom 4.4476 2.1112 4.2771
Atom 8.1614 2.7033 3.5050
Atom 4.6532 3.8079 8.9447
Atom 1.2116 2.1739 4.3797
Atom 3.0444 2.2523 8.0699
Atom 6.1116 6.8987 7.2649
Atom 4.6221 8.3553 6.0299
Atom 1.1745 1.1167 7.6148
Atom 3.0285 3.9199 5.2890
Atom 8.8060 1.6086 2.1411
Atom 2.8012 1.2903 2.5936
Atom 9.3976 4.2164 4.8542
Atom 3.3776 0.3194 0.7839
Atom 3.7185 9.6478 8.1789
Atom 6.2135 4.8158 5.9673
Atom 1.0495 8.1524 0.7184
Atom 7.5554 8.6901 7.7408
100
Step 60
Atom 7.7913 1.3190 5.2657
Atom 5.0899 1.0910 4.7247
Atom 8.3579 0.8136 9.4614
Atom 4.0110 1.9729 9.5714
Atom 3.0254 6.7618 1.9715
Atom 7.8992 8.1566 4.1693
Atom 2.2516 5.0404 3.1225
Atom 1.2371 5.4559 4.6170
Atom 6.4855 0.1152 5.1174
Atom 8.0539 8.4577 9.6750
Atom 2.6571 3.7731 0.1728
Atom 1.8032 8.9619 8.3427
Atom 8.6571 9.0522 9.0779
Atom 2.8592 0.4610 5.8298
Atom 5.0964 4.1187 2.1851
Atom 0.9386 5.7297 8.4395
Atom 4.5106 8.3031 4.6904
Atom 0.9338 3.0273 1.6060
Atom 0.6453 2.1657 8.7836
Atom 0.1376 1.2018 1.8816
Atom 8.7531 1.0707 0.8102
Atom 6.7145 5.4950 1.2130
Atom 7.6061 6.0235 4.7329
Atom 0.9716 7.7920 5.7025
Atom 8.9181 8.9650 3.2986
Atom 7.6176 9.0693 6.7535
Atom 9.4022 1.2148 3.2325
Atom 9.7752 9.9872 9.7820
Atom 5.5500 6.1369 3.4359
Atom 4.7345 3.6270 3.6598
Atom 1.4758 9.9710 5.1630
Atom 2.6077 5.9265 8.2906
Atom 5.2812 4.8272 9.5543
Atom 4.6515 9.8884 5.9355
Atom 0.0713 1.5706 9.8420
Atom 6.3998 6.2008 7.8995
Atom 0.8392 4.7820 8.8534
Atom 1.9855 7.2446 4.4059
Atom 4.4007 9.9695 0.9621
Atom 4.9790 7.4211 3.9341
Atom 2.1379 4.9136 8.6801
Atom 7.4582 0.1643 0.2388
Atom 6.5101 1.0658 9.6797
Atom 5.4067 2.2372 4.8944
Atom 1.8006 5.4817 8.6622
Atom 6.6573 0.6241 0.9133
Atom 0.4677 5.3687 4.9954
Atom 2.4861 7.3094 6.3380
Atom 4.3101 1.9759 4.4038
Atom 5.7450 0.3118 6.5517
Atom 0.8214 5.3521 1.8646
Atom 6.3204 1.4940 2.4462
Atom 1.1229 8.8430 9.1212
Atom 5.6658 9.0337 2.4389
Atom 4.2621 0.5057 8.9645
Atom 2.9633 5.9811 7.7823
Atom 9.6444 1.8804 8.8665
Atom 1.2219 7.7750 2.7192
Atom 0.3406 8.3908 8.4076
Atom 6.7298 5.1806 5.8559
Atom 6.4144 3.0088 5.1314
Atom 0.2140 9.7475 4.6901
Atom 6.9587 3.6012 9.9947
Atom 0.4894 4.2639 5.5087
Atom 9.9404 5.8444 9.9412
Atom 5.9712 4.2650 5.9157
Atom 2.8615 8.6236 5.8451
Atom 9.1966 0.2470 8.6254
Atom 9.7783 8.6709 0.4598
Atom 8.3977 5.8243 8.1017
Atom 9.9270 2.1449 4.5998
Atom 7.9415 4.9836 1.4044
Atom 2.6379 5.2705 1.3960
Atom 0.5690 5.7336 4.5626
Atom 2.9504 8.5964 5.0780
Atom 3.6805 2.3495 5.6176
Atom 9.7524 3.7590 9.6991
Atom 2.4641 1.5645 0.7534
Atom 9.2272 6.8162 1.6139
Atom 0.9624 6.3474 0.5703
Atom 8.1941 7.1078 2.9812
Atom 0.0987 5.1299 9.8132
Atom 8.0279 0.2694 2.0173
Atom 4.5126 1.9765 4.1816
Atom 8.1816 2.5249 3.5389
Atom 4.5612 3.6665 9.0630
Atom 1.2784 2.0650 4.2749
Atom 3.0721 2.1767 8.0946
Atom 5.8844 6.9220 7.1690
Atom 4.6118 8.5532 5.8837
Atom 1.0668 1.2085 7.5850
Atom 3.1301 3.8843 5.1468
Atom 8.6903 1.5790 2.1707
Atom 2.7903 1.2810 2.6422
Atom 9.2293 4.3784 5.1704
Atom 3.3421 0.4836 0.8495
Atom 3.7073 9.6881 8.2006
Atom 6.1711 4.6927 5.7751
Atom 1.2218 8.2432 0.6637
Atom 7.5426 8.6577 7.8509
100
Step 70
Atom 7.7703 1.3067 5.1006
Atom 5.1817 1.1114 4.7810
Atom 8.5166 1.0569 9.4653
Atom 3.8637 1.9130 9.5359
Atom 3.1513 6.8404 1.9307
Atom 7.8253 8.1901 4.1853
Atom 2.1197 5.1695 3.1225
Atom 1.0669 5.3501 4.7427
Atom 6.4995 0.2340 4.9930
Atom 7.9795 8.5072 9.8041
Atom 2.6722 3.6723 0.0323
Atom 1.5805 9.0287 8.2781
Atom 8.6382 9.1862 8.9775
Atom 2.8953 0.5282 5.9224
Atom 4.9478 4.0682 2.1507
Atom 0.9283 5.7899 8.7265
Atom 4.4784 8.5004 4.6042
Atom 0.9595 3.0143 1.5391
Atom 0.5920 2.0646 8.8196
Atom 0.1513 1.1694 1.9168
Atom 8.8247 0.8983 0.8833
Atom 6.8687 5.4312 1.2278
Atom 7.4989 6.2176 4.8362
Atom 1.2164 7.7129 5.6028
Atom 8.9116 8.9328 3.3834
Atom 7.8721 9.2152 6.7404
Atom 9.5071 0.9855 3.4104
Atom 9.8347 0.0235 9.8564
Atom 5.4822 6.0713 3.4336
Atom 4.7975 3.7996 3.7228
Atom 1.5830 0.0231 5.0640
Atom 2.6960 5.8754 8.1863
Atom 5.3526 5.0250 9.6578
Atom 4.7658 9.6436 5.9945
Atom 9.9751 1.7469 9.7578
Atom 6.4024 6.0879 7.7703
Atom 0.7772 4.8215 8.8415
Atom 2.0598 7.1545 4.4306
Atom 4.2432 9.7214 0.9545
Atom 5.1108 7.7027 4.0641
Atom 2.2771 4.7437 8.5219
Atom 7.6414 0.3928 0.0607
Atom 6.5492 1.0967 9.5422
Atom 5.4381 2.1260 4.7064
Atom 1.8629 5.2294 8.6721
Atom 6.5644 0.6647 0.9860
Atom 0.3884 5.3971 5.0211
Atom 2.5443 7.2700 6.1435
Atom 4.2451 1.9256 4.3827
Atom 5.7187 0.2831 6.6063
Atom 0.7494 5.5500 1.9536
Atom 6.1522 1.5247 2.6544
Atom 0.9514 8.8156 8.9986
Atom 5.6666 9.0930 2.4229
Atom 4.3083 0.4841 8.8868
Atom 2.7488 5.9903 7.8008
Atom 9.5643 1.8448 8.8845
Atom 1.3352 7.7201 2.8488
Atom 0.2991 8.3592 8.4171
Atom 6.9191 5.0962 5.9190
Atom 6.3388 3.0196 4.9999
Atom 0.1449 9.6940 4.7467
Atom 6.9979 3.6936 0.1402
Atom 0.5895 4.4615 5.6048
Atom 9.6854 5.5802 9.9444
Atom 5.8761 4.1830 6.0769
Atom 2.6872 8.6244 5.7765
Atom 9.0351 0.2388 8.7569
Atom 9.8765 8.6082 0.4636
Atom 8.4058 5.8413 8.1621
Atom 0.0464 2.0481 4.4139
Atom 7.8401 4.7556 1.3844
Atom 2.6571 5.2717 1.4823
Atom 0.5337 5.6899 4.5313
Atom 2.8334 8.6055 5.1608
Atom 3.8126 2.4242 5.4605
Atom 9.9677 3.7736 9.5777
Atom 2.6320 1.5420 0.8223
Atom 9.2207 6.7742 1.6131
Atom 0.9864 6.2553 0.5809
Atom 8.2542 7.0262 3.0559
Atom 0.2446 5.3481 9.7969
Atom 8.0974 0.4617 1.9774
Atom 4.5776 1.8416 4.0863
Atom 8.2019 2.3465 3.5726
Atom 4.4692 3.5252 9.1812
Atom 1.3453 1.9561 4.1701
Atom 3.0996 2.1011 8.1195
Atom 5.6573 6.9454 7.0729
Atom 4.6013 8.7516 5.7375
Atom 0.9592 1.3000 7.5553
Atom 3.2316 3.8485 5.0044
Atom 8.5747 1.5492 2.2000
Atom 2.7793 1.2717 2.6907
Atom 9.0607 4.5403 5.4864
Atom 3.3066 0.6478 0.9150
Atom 3.6959 9.7288 8.2221
Atom 6.1286 4.5698 5.5827
Atom 1.3940 8.3338 0.6088
Atom 7.5298 8.6253 7.9611
100
Step 80
Atom 7.7491 1.2941 4.9353
Atom 5.2735 1.1315 4.8373
Atom 8.6755 1.2999 9.4697
Atom 3.7164 1.8528 9.5004
Atom 3.2770 6.9190 1.8899
Atom 7.7512 8.2240 4.2015
Atom 1.9878 5.2986 3.1227
Atom 0.8968 5.2446 4.8684
Atom 6.5131 0.3525 4.8683
Atom 7.9054 8.5569 9.9334
Atom 2.6868 3.5717 9.8916
Atom 1.3576 9.0956 8.2136
Atom 8.6194 9.3205 8.8774
Atom 2.9316 0.5955 6.0152
Atom 4.7993 4.0175 2.1160
Atom 0.9178 5.8504 9.0135
Atom 4.4463 8.6980 4.5179
Atom 0.9852 3.0013 1.4721
Atom 0.5391 1.9635 8.8559
Atom 0.1651 1.1370 1.9520
Atom 8.8963 0.7255 0.9562
Atom 7.0229 5.3675 1.2428
Atom 7.3918 6.4117 4.9396
Atom 1.4612 7.6333 5.5029
Atom 8.9053 8.9008 3.4680
Atom 8.1267 9.3612 6.7272
Atom 9.6120 0.7561 3.5880
Atom 9.8943 0.0598 9.9308
Atom 5.4145 6.0057 3.4315
Atom 4.8605 3.9721 3.7860
Atom 1.6901 0.0754 4.9649
Atom 2.7842 5.8243 8.0821
Atom 5.4237 5.2227 9.7615
Atom 4.8800 9.3990 6.0533
Atom 9.8788 1.9230 9.6737
Atom 6.4050 5.9751 7.6409
Atom 0.7153 4.8609 8.8296
Atom 2.1342 7.0645 4.4552
Atom 4.0858 9.4735 0.9469
Atom 5.2425 7.9844 4.1944
Atom 2.4162 4.5735 8.3640
Atom 7.8250 0.6215 9.8827
Atom 6.5886 1.1276 9.4049
Atom 5.4696 2.0147 4.5186
Atom 1.9251 4.9771 8.6820
Atom 6.4717 0.7053 1.0586
Atom 0.3093 5.4258 5.0467
Atom 2.6025 7.2307 5.9490
Atom 4.1801 1.8750 4.3615
Atom 5.6921 0.2546 6.6609
Atom 0.6774 5.7480 2.0427
Atom 5.9840 1.5556 2.8629
Atom 0.7798 8.7882 8.8759
Atom 5.6674 9.1524 2.4073
Atom 4.3545 0.4625 8.8090
Atom 2.5342 5.9995 7.8194
Atom 9.4842 1.8091 8.9026
Atom 1.4482 7.6649 2.9786
Atom 0.2575 8.3274 8.4266
Atom 7.1084 5.0119 5.9820
Atom 6.2630 3.0301 4.8682
Atom 0.0759 9.6406 4.8033
Atom 7.0372 3.7856 0.2857
Atom 0.6898 4.6591 5.7009
Atom 9.4305 5.3161 9.9475
Atom 5.7808 4.1009 6.2378
Atom 2.5128 8.6253 5.7080
Atom 8.8736 0.2306 8.8885
Atom 9.9746 8.5457 0.4675
Atom 8.4143 5.8583 8.2228
Atom 0.1658 1.9512 4.2278
Atom 7.7390 4.5277 1.3643
Atom 2.6762 5.2728 1.5685
Atom 0.4983 5.6463 4.4998
Atom 2.7164 8.6145 5.2435
Atom 3.9448 2.4988 5.3035
Atom 0.1831 3.7884 9.4564
Atom 2.7996 1.5194 0.8909
Atom 9.2144 6.7323 1.6122
Atom 1.0105 6.1634 0.5915
Atom 8.3144 6.9444 3.1305
Atom 0.3905 5.5663 9.7807
Atom 8.1669 0.6538 1.9371
Atom 4.6425 1.7066 3.9912
Atom 8.2222 2.1680 3.6062
Atom 4.3770 3.3839 9.2995
Atom 1.4124 1.8471 4.0654
Atom 3.1267 2.0255 8.1443
Atom 5.4303 6.9687 6.9765
Atom 4.5908 8.9501 5.5913
Atom 0.8517 1.3912 7.5255
Atom 3.3331 3.8128 4.8619
Atom 8.4590 1.5192 2.2288
Atom 2.7682 1.2623 2.7393
Atom 8.8919 4.7021 5.8025
Atom 3.2710 0.8120 0.9803
Atom 3.6845 9.7696 8.2433
Atom 6.0859 4.4468 5.3903
Atom 1.5661 8.4242 0.5541
Atom 7.5169 8.5930 8.0714
100
Step 90
Atom 7.7279 1.2812 4.7699
Atom 5.3650 1.1515 4.8936
Atom 8.8344 1.5428 9.4744
Atom 3.5691 1.7925 9.4650
Atom 3.4024 6.9976 1.8491
Atom 7.6768 8.2582 4.2178
Atom 1.8557 5.4275 3.1230
Atom 0.7270 5.1393 4.9940
Atom 6.5268 0.4710 4.7432
Atom 7.8317 8.6070 0.0628
Atom 2.7010 3.4713 9.7507
Atom 1.1345 9.1626 8.1489
Atom 8.6008 9.4553 8.7775
Atom 2.9681 0.6630 6.1080
Atom 4.6507 3.9667 2.0813
Atom 0.9071 5.9113 9.3005
Atom 4.4141 8.8961 4.4318
Atom 1.0108 2.9884 1.4052
Atom 0.4864 1.8625 8.8925
Atom 0.1790 1.1045 1.9872
Atom 8.9679 0.5526 1.0290
Atom 7.1774 5.3040 1.2581
Atom 7.2844 6.6057 5.0430
Atom 1.7058 7.5536 5.4030
Atom 8.8990 8.8689 3.5523
Atom 8.3812 9.5074 6.7137
Atom 9.7169 0.5267 3.7655
Atom 9.9538 0.0962 0.0053
Atom 5.3469 5.9401 3.4295
Atom 4.9236 4.1445 3.8493
Atom 1.7974 0.1276 4.8656
Atom 2.8723 5.7732 7.9779
Atom 5.4946 5.4203 9.8652
Atom 4.9941 9.1543 6.1122
Atom 9.7826 2.0990 9.5899
Atom 6.4076 5.8622 7.5113
Atom 0.6533 4.9001 8.8178
Atom 2.2085 6.9744 4.4797
Atom 3.9284 9.2258 0.9392
Atom 5.3742 8.2664 4.3250
Atom 2.5551 4.4031 8.2062
Atom 8.0088 0.8502 9.7048
Atom 6.6284 1.1583 9.2676
Atom 5.5011 1.9036 4.3310
Atom 1.9871 4.7247 8.6921
Atom 6.3790 0.7459 1.1310
Atom 0.2307 5.4550 5.0720
Atom 2.6609 7.1914 5.7544
Atom 4.1152 1.8241 4.3404
Atom 5.6654 0.2261 6.7154
Atom 0.6053 5.9458 2.1318
Atom 5.8159 1.5865 3.0714
Atom 0.6081 8.7608 8.7533
Atom 5.6684 9.2121 2.3920
Atom 4.4007 0.4409 8.7310
Atom 2.3194 6.0088 7.8379
Atom 9.4040 1.7731 8.9210
Atom 1.5609 7.6096 3.1087
Atom 0.2158 8.2954 8.4363
Atom 7.2978 4.9277 6.0450
Atom 6.1873 3.0404 4.7365
Atom 0.0071 9.5870 4.8600
Atom 7.0766 3.8773 0.4311
Atom 0.7903 4.8568 5.7971
Atom 9.1757 5.0520 9.9508
Atom 5.6853 4.0187 6.3983
Atom 2.3383 8.6263 5.6396
Atom 8.7123 0.2223 9.0202
Atom 0.0727 8.4833 0.4713
Atom 8.4234 5.8752 8.2835
Atom 0.2851 1.8542 4.0416
Atom 7.6381 4.2998 1.3442
Atom 2.6951 5.2738 1.6544
Atom 0.4630 5.6029 4.4681
Atom 2.5994 8.6235 5.3261
Atom 4.0771 2.5733 5.1465
Atom 0.3988 3.8033 9.3352
Atom 2.9671 1.4968 0.9593
Atom 9.2080 6.6904 1.6112
Atom 1.0347 6.0716 0.6021
Atom 8.3748 6.8625 3.2051
Atom 0.5366 5.7846 9.7642
Atom 8.2365 0.8459 1.8965
Atom 4.7074 1.5715 3.8963
Atom 8.2423 1.9893 3.6398
Atom 4.2847 3.2426 9.4179
Atom 1.4797 1.7382 3.9606
Atom 3.1536 1.9500 8.1691
Atom 5.2032 6.9923 6.8797
Atom 4.5802 9.1487 5.4452
Atom 0.7441 1.4821 7.4960
Atom 3.4345 3.7770 4.7192
Atom 8.3434 1.4891 2.2575
Atom 2.7569 1.2530 2.7880
Atom 8.7230 4.8638 6.1187
Atom 3.2353 0.9763 1.0455
Atom 3.6732 9.8104 8.2642
Atom 6.0430 4.3237 5.1978
Atom 1.7383 8.5146 0.4995
Atom 7.5041 8.5607 8.1818
100
Step 100
Atom 7.7067 1.2682 4.6041
Atom 5.4564 1.1713 4.9499
Atom 8.9935 1.7857 9.4795
Atom 3.4217 1.7323 9.4297
Atom 3.5276 7.0763 1.8085
Atom 7.6025 8.2929 4.2342
Atom 1.7236 5.5565 3.1235
Atom 0.5574 5.0343 5.1197
Atom 6.5403 0.5893 4.6179
Atom 7.7584 8.6574 0.1923
Atom 2.7148 3.3711 9.6099
Atom 0.9113 9.2297 8.0845
Atom 8.5824 9.5905 8.6780
Atom 3.0048 0.7304 6.2007
Atom 4.5023 3.9157 2.0466
Atom 0.8963 5.9724 9.5877
Atom 4.3819 9.0945 4.3458
Atom 1.0364 2.9754 1.3382
Atom 0.4340 1.7614 8.9294
Atom 0.1930 1.0720 2.0222
Atom 9.0394 0.3795 1.1017
Atom 7.3320 5.2405 1.2734
Atom 7.1767 6.7997 5.1465
Atom 1.9502 7.4737 5.3031
Atom 8.8928 8.8374 3.6365
Atom 8.6357 9.6537 6.7001
Atom 9.8218 0.2971 3.9428
Atom 0.0130 0.1326 0.0800
Atom 5.2794 5.8745 3.4277
Atom 4.9868 4.3166 3.9127
Atom 1.9049 0.1796 4.7662
Atom 2.9601 5.7222 7.8736
Atom 5.5655 5.6177 9.9689
Atom 5.1077 8.9099 6.1711
Atom 9.6863 2.2749 9.5063
Atom 6.4103 5.7493 7.3816
Atom 0.5915 4.9391 8.8060
Atom 2.2828 6.8843 4.5042
Atom 3.7709 8.9783 0.9314
Atom 5.5059 8.5484 4.4557
Atom 2.6936 4.2325 8.0486
Atom 8.1928 1.0788 9.5270
Atom 6.6685 1.1888 9.1304
Atom 5.5325 1.7925 4.1435
Atom 2.0491 4.4721 8.7023
Atom 6.2865 0.7865 1.2034
Atom 0.1524 5.4846 5.0971
Atom 2.7193 7.1521 5.5598
Atom 4.0503 1.7730 4.3193
Atom 5.6386 0.1976 6.7698
Atom 0.5331 6.1437 2.2208
Atom 5.6482 1.6176 3.2801
Atom 0.4364 8.7335 8.6306
Atom 5.6695 9.2719 2.3771
Atom 4.4467 0.4195 8.6532
Atom 2.1043 6.0182 7.8563
Atom 9.3238 1.7370 8.9395
Atom 1.6734 7.5544 3.2389
Atom 0.1739 8.2632 8.4461
Atom 7.4871 4.8435 6.1080
Atom 6.1117 3.0506 4.6046
Atom 9.9386 9.5333 4.9167
Atom 7.1161 3.9687 0.5765
Atom 0.8913 5.0547 5.8935
Atom 8.9210 4.7877 9.9541
Atom 5.5894 3.9363 6.5584
Atom 2.1638 8.6273 5.5713
Atom 8.5514 0.2138 9.1520
Atom 0.1708 8.4209 0.4749
Atom 8.4330 5.8921 8.3444
Atom 0.4043 1.7572 3.8551
Atom 7.5372 4.0719 1.3242
Atom 2.7139 5.2746 1.7401
Atom 0.4277 5.5599 4.4364
Atom 2.4825 8.6327 5.4086
Atom 4.2096 2.6477 4.9894
Atom 0.6146 3.8182 9.2139
Atom 3.1345 1.4743 1.0275
Atom 9.2017 6.6486 1.6102
Atom 1.0591 5.9799 0.6126
Atom 8.4355 6.7803 3.2795
Atom 0.6828 6.0031 9.7475
Atom 8.3062 1.0379 1.8557
Atom 4.7722 1.4363 3.8016
Atom 8.2620 1.8105 3.6733
Atom 4.1923 3.1013 9.5365
Atom 1.5473 1.6291 3.8559
Atom 3.1801 1.8746 8.1939
Atom 4.9759 7.0160 6.7826
Atom 4.5694 9.3472 5.2990
Atom 0.6366 1.5728 7.4666
Atom 3.5363 3.7411 4.5764
Atom 8.2277 1.4590 2.2861
Atom 2.7455 1.2437 2.8369
Atom 8.5539 5.0257 6.4348
Atom 3.1997 1.1407 1.1105
Atom 3.6618 9.8511 8.2849
Atom 6.0000 4.2005 5.0051
Atom 1.9103 8.6047 0.4448
Atom 7.4914 8.5285 8.2922
100
Step 110
Atom 7.6855 1.2548 4.4382
Atom 5.5477 1.1910 5.0062
Atom 9.1527 2.0287 9.4849
Atom 3.2741 1.6721 9.3943
Atom 3.6525 7.1549 1.7681
Atom 7.5280 8.3282 4.2507
Atom 1.5915 5.6856 3.1240
Atom 0.3881 4.9296 5.2453
Atom 6.5537 0.7073 4.4924
Atom 7.6853 8.7082 0.3219
Atom 2.7283 3.2711 9.4692
Atom 0.6880 9.2969 8.0202
Atom 8.5642 9.7259 8.5787
Atom 3.0419 0.7978 6.2932
Atom 4.3540 3.8644 2.0120
Atom 0.8854 6.0338 9.8751
Atom 4.3493 9.2933 4.2600
Atom 1.0622 2.9622 1.2711
Atom 0.3817 1.6601 8.9665
Atom 0.2069 1.0395 2.0569
Atom 9.1109 0.2067 1.1741
Atom 7.4867 5.1771 1.2890
Atom 7.0687 6.9935 5.2503
Atom 2.1942 7.3935 5.2031
Atom 8.8865 8.8062 3.7204
Atom 8.8904 9.8001 6.6867
Atom 9.9265 0.0675 4.1200
Atom 0.0721 0.1690 0.1548
Atom 5.2118 5.8089 3.4259
Atom 5.0499 4.4882 3.9762
Atom 2.0129 0.2313 4.6669
Atom 3.0476 5.6712 7.7693
Atom 5.6363 5.8150 0.0725
Atom 5.2210 8.6659 6.2298
Atom 9.5900 2.4509 9.4230
Atom 6.4131 5.6364 7.2518
Atom 0.5297 4.9780 8.7941
Atom 2.3569 6.7939 4.5288
Atom 3.6133 8.7312 0.9235
Atom 5.6375 8.8305 4.5867
Atom 2.8320 4.0619 7.8910
Atom 8.3768 1.3073 9.3494
Atom 6.7089 1.2192 8.9931
Atom 5.5639 1.6815 3.9560
Atom 2.1110 4.2194 8.7128
Atom 6.1941 0.8270 1.2757
Atom 0.0744 5.5145 5.1219
Atom 2.7777 7.1126 5.3653