100
Step 0
Atom 9.8172 3.0410 7.9165
Atom 1.2664 4.1415 4.5373
Atom 3.7157 0.2391 8.2383
Atom 6.1194 2.7411 6.0146
Atom 3.9930 2.0888 7.7552
Atom 0.9256 0.7496 6.9504
Atom 8.9586 5.8825 8.5629
Atom 9.4872 5.2497 5.8632
Atom 8.7992 8.4726 2.3033
Atom 7.2110 6.0274 6.8525
Atom 7.9767 7.1405 4.9684
Atom 3.3464 9.8281 0.5159
Atom 6.6263 9.2458 4.7250
Atom 4.1286 1.5554 4.0620
Atom 7.5919 5.7951 8.8417
Atom 2.1412 8.1495 8.3338
Atom 1.3784 4.9355 2.6462
Atom 2.0388 2.9635 9.1936
Atom 1.8358 8.6154 9.6117
Atom 4.8958 6.8697 2.8951
Atom 4.6986 4.8414 4.6876
Atom 6.4850 2.2933 7.4257
Atom 6.2641 7.0796 2.5856
Atom 7.9695 3.2050 7.3442
Atom 5.1922 6.2612 7.5410
Atom 1.4918 9.5453 7.1457
Atom 4.9450 2.7941 1.2394
Atom 6.5866 4.1034 3.4016
Atom 4.2453 8.9538 0.8614
Atom 1.9668 8.7727 6.5148
Atom 5.3881 9.8071 1.9153
Atom 0.8253 6.2540 0.6365
Atom 5.6085 5.7752 1.5303
Atom 1.3673 1.8104 5.8400
Atom 8.1069 6.3937 6.9133
Atom 9.7239 4.7902 4.3355
Atom 1.1365 9.1109 3.2406
Atom 8.2362 3.8446 9.6580
Atom 8.0836 1.7847 0.0053
Atom 6.8180 8.1255 6.5293
Atom 5.6033 8.3353 7.4705
Atom 3.9451 5.0500 3.3247
Atom 5.0642 0.4708 8.0232
Atom 3.3310 8.1194 2.1705
Atom 0.8466 8.3229 7.0707
Atom 3.8847 9.5142 8.8419
Atom 1.8066 4.9457 6.5335
Atom 4.8937 4.4864 2.9285
Atom 7.0862 6.5903 1.2731
Atom 7.3626 7.2576 7.0765
Atom 3.4406 0.3096 1.9559
Atom 0.8151 6.3434 4.1892
Atom 4.2560 7.5007 3.3718
Atom 6.0167 9.6478 2.6510
Atom 9.1011 7.5176 3.7127
Atom 9.9009 1.4768 3.5955
Atom 0.1980 7.8637 4.2081
Atom 1.4738 4.9152 4.8771
Atom 1.6526 0.5136 9.9965
Atom 1.3292 2.0436 1.0488
Atom 6.1036 9.4725 0.7047
Atom 4.8542 1.8716 7.9194
Atom 5.1943 3.9114 3.9375
Atom 1.1641 1.2114 8.3777
Atom 9.5498 1.0540 9.6551
Atom 3.0935 4.2946 3.8542
Atom 7.5879 6.3585 2.6886
Atom 0.7603 5.3097 1.7585
Atom 0.0032 6.4260 0.8621
Atom 1.1992 0.3549 5.1759
Atom 1.7151 6.3200 3.2628
Atom 2.6871 0.2484 1.3648
Atom 3.7740 1.3159 1.1038
Atom 4.0843 6.6385 2.1175
Atom 3.2354 2.4047 1.0989
Atom 3.7153 2.2965 4.8091
Atom 4.3051 7.5067 2.4948
Atom 1.8724 3.4953 7.3652
Atom 5.2658 5.8110 0.2275
Atom 4.1474 6.1432 9.0828
Atom 4.9919 6.6224 9.2203
Atom 4.5978 5.8562 8.4703
Atom 1.3304 5.7517 7.7153
Atom 5.9434 6.7222 6.5689
Atom 0.6357 4.2642 8.6264
Atom 5.0412 4.9207 8.5850
Atom 4.3616 1.0304 8.1381
Atom 2.2229 7.3071 6.6121
Atom 8.6988 5.4425 3.8336
Atom 0.4027 7.6389 9.0576
Atom 5.8093 6.0071 5.6532
Atom 5.4266 4.1258 7.5830
Atom 5.2908 3.8773 8.7175
Atom 0.0781 6.8524 5.5773
Atom 4.5530 8.6014 6.9776
Atom 3.6647 5.7523 4.2739
Atom 2.0052 6.5245 8.0765
Atom 5.7998 1.0987 1.9310
Atom 2.5337 7.2891 5.1464
Atom 2.8348 7.9789 3.0070
100
Step 10
Atom 9.8064 3.0585 7.9035
Atom 1.3161 4.1405 4.5245
Atom 3.7062 0.1873 8.3165
Atom 6.0716 2.7089 6.0188
Atom 3.9850 2.0216 7.7737
Atom 0.9893 0.7246 6.9924
Atom 8.9379 5.9157 8.5755
Atom 9.4754 5.2444 5.9226
Atom 8.7136 8.5061 2.3314
Atom 7.0811 6.0783 6.8025
Atom 7.9734 7.1059 5.0208
Atom 3.2645 9.8775 0.4122
Atom 6.5824 9.2089 4.7300
Atom 4.1644 1.5357 4.1244
Atom 7.6545 5.7675 8.8527
Atom 2.1843 8.1251 8.3390
Atom 1.4411 4.9727 2.6715
Atom 1.9469 2.9891 9.2414
Atom 1.8760 8.5934 9.6441
Atom 4.9256 6.8439 2.8520
Atom 4.6880 4.7785 4.7026
Atom 6.5415 2.2980 7.4482
Atom 6.2086 7.0362 2.5206
Atom 7.9211 3.0949 7.3979
Atom 5.2581 6.2551 7.5419
Atom 1.3994 9.5427 7.1017
Atom 4.9523 2.7281 1.2369
Atom 6.5153 4.1814 3.3676
Atom 4.2218 8.8722 0.8775
Atom 2.0274 8.7906 6.5021
Atom 5.4283 9.8571 1.9603
Atom 0.8090 6.3286 0.7081
Atom 5.7028 5.8378 1.4574
Atom 1.3244 1.7961 5.7811
Atom 8.1066 6.3314 6.8538
Atom 9.6979 4.7775 4.3932
Atom 1.2131 9.1229 3.2973
Atom 8.2076 3.8626 9.6271
Atom 8.1918 1.6910 0.0636
Atom 6.8114 8.1690 6.5691
Atom 5.5316 8.3347 7.4334
Atom 3.8465 5.0649 3.3322
Atom 4.9903 0.4525 7.9702
Atom 3.3480 8.0811 2.0624
Atom 0.7908 8.2921 7.0532
Atom 3.8035 9.5729 8.8169
Atom 1.8021 4.9550 6.5209
Atom 4.9566 4.5406 2.8831
Atom 7.1451 6.5299 1.3349
Atom 7.3243 7.2655 7.1580
Atom 3.3503 0.3646 2.0325
Atom 0.8531 6.3324 4.2797
Atom 4.2452 7.4858 3.4021
Atom 6.0347 9.6409 2.6010
Atom 9.1359 7.5451 3.6348
Atom 9.8747 1.4217 3.5187
Atom 0.2230 7.9583 4.2205
Atom 1.4527 4.9435 4.8653
Atom 1.6868 0.5045 0.0553
Atom 1.3610 1.9797 1.0068
Atom 6.0567 9.4585 0.7481
Atom 4.8821 1.8769 7.9694
Atom 5.2168 4.0362 3.8781
Atom 1.2271 1.2261 8.3309
Atom 9.4986 1.1280 9.6425
Atom 3.0686 4.3092 3.8976
Atom 7.5697 6.4053 2.6212
Atom 0.7904 5.2920 1.7700
Atom 0.0144 6.4790 0.9306
Atom 1.2807 0.4631 5.2273
Atom 1.8522 6.2752 3.2565
Atom 2.6771 0.2723 1.3902
Atom 3.7747 1.2941 1.1231
Atom 3.9912 6.6784 2.1883
Atom 3.2683 2.3717 1.1330
Atom 3.7058 2.2217 4.8172
Atom 4.3026 7.5848 2.4596
Atom 1.8895 3.5644 7.4057
Atom 5.2062 5.7933 0.1834
Atom 4.1127 6.1183 9.0437
Atom 4.9478 6.5981 9.1113
Atom 4.6678 5.8763 8.4849
Atom 1.3421 5.7508 7.7148
Atom 5.9256 6.7712 6.5239
Atom 0.6507 4.2266 8.6395
Atom 5.0587 4.9138 8.6553
Atom 4.3944 0.9953 8.1709
Atom 2.2791 7.3273 6.4900
Atom 8.6839 5.5166 3.7699
Atom 0.3595 7.6982 9.0534
Atom 5.7682 5.9767 5.6038
Atom 5.5138 4.0784 7.6183
Atom 5.3785 3.8754 8.7543
Atom 9.9900 6.8613 5.5280
Atom 4.5082 8.6306 6.9804
Atom 3.6384 5.7452 4.2710
Atom 2.0873 6.5117 8.0843
Atom 5.7863 0.9949 1.9004
Atom 2.5498 7.2596 5.0917
Atom 2.9406 7.9315 2.9881
100
Step 20
Atom 9.7959 3.0759 7.8905
Atom 1.3659 4.1399 4.5118
Atom 3.6960 0.1352 8.3950
Atom 6.0234 2.6769 6.0228
Atom 3.9770 1.9547 7.7922
Atom 1.0531 0.6997 7.0347
Atom 8.9174 5.9490 8.5878
Atom 9.4637 5.2392 5.9822
Atom 8.6279 8.5393 2.3595
Atom 6.9511 6.1290 6.7527
Atom 7.9698 7.0712 5.0730
Atom 3.1828 9.9270 0.3085
Atom 6.5385 9.1715 4.7350
Atom 4.2002 1.5160 4.1864
Atom 7.7165 5.7399 8.8638
Atom 2.2278 8.1007 8.3442
Atom 1.5039 5.0102 2.6969
Atom 1.8550 3.0144 9.2890
Atom 1.9166 8.5714 9.6765
Atom 4.9557 6.8181 2.8089
Atom 4.6773 4.7158 4.7176
Atom 6.5976 2.3026 7.4709
Atom 6.1529 6.9928 2.4557
Atom 7.8725 2.9852 7.4517
Atom 5.3241 6.2492 7.5428
Atom 1.3073 9.5401 7.0580
Atom 4.9595 2.6622 1.2344
Atom 6.4439 4.2600 3.3335
Atom 4.1981 8.7902 0.8938
Atom 2.0882 8.8084 6.4897
Atom 5.4679 9.9068 2.0053
Atom 0.7928 6.4034 0.7796
Atom 5.7968 5.9003 1.3844
Atom 1.2818 1.7820 5.7224
Atom 8.1060 6.2690 6.7942
Atom 9.6720 4.7650 4.4508
Atom 1.2899 9.1346 3.3539
Atom 8.1789 3.8808 9.5962
Atom 8.3000 1.5973 0.1218
Atom 6.8045 8.2122 6.6088
Atom 5.4596 8.3339 7.3964
Atom 3.7479 5.0801 3.3397
Atom 4.9163 0.4341 7.9174
Atom 3.3649 8.0427 1.9542
Atom 0.7351 8.2611 7.0356
Atom 3.7221 9.6317 8.7920
Atom 1.7975 4.9644 6.5082
Atom 5.0194 4.5952 2.8377
Atom 7.2039 6.4696 1.3967
Atom 7.2860 7.2731 7.2395
Atom 3.2602 0.4194 2.1091
Atom 0.8915 6.3216 4.3703
Atom 4.2344 7.4708 3.4324
Atom 6.0522 9.6335 2.5508
Atom 9.1709 7.5724 3.5569
Atom 9.8487 1.3665 3.4420
Atom 0.2482 8.0525 4.2332
Atom 1.4318 4.9722 4.8537
Atom 1.7216 0.4954 0.1138
Atom 1.3931 1.9156 0.9648
Atom 6.0094 9.4444 0.7915
Atom 4.9097 1.8821 8.0197
Atom 5.2393 4.1611 3.8188
Atom 1.2907 1.2408 8.2840
Atom 9.4476 1.2021 9.6298
Atom 3.0437 4.3241 3.9409
Atom 7.5512 6.4521 2.5542
Atom 0.8205 5.2743 1.7819
Atom 0.0256 6.5320 0.9993
Atom 1.3622 0.5712 5.2787
Atom 1.9893 6.2306 3.2502
Atom 2.6672 0.2958 1.4155
Atom 3.7753 1.2720 1.1421
Atom 3.8981 6.7183 2.2590
Atom 3.3013 2.3384 1.1670
Atom 3.6962 2.1471 4.8255
Atom 4.3001 7.6629 2.4246
Atom 1.9067 3.6332 7.4461
Atom 5.1466 5.7758 0.1394
Atom 4.0781 6.0934 9.0046
Atom 4.9039 6.5738 9.0023
Atom 4.7378 5.8968 8.4993
Atom 1.3533 5.7505 7.7142
Atom 5.9079 6.8200 6.4788
Atom 0.6656 4.1891 8.6526
Atom 5.0764 4.9069 8.7254
Atom 4.4271 0.9602 8.2039
Atom 2.3353 7.3474 6.3676
Atom 8.6692 5.5908 3.7063
Atom 0.3164 7.7574 9.0489
Atom 5.7273 5.9465 5.5543
Atom 5.6012 4.0313 7.6534
Atom 5.4663 3.8738 8.7910
Atom 9.9024 6.8700 5.4788
Atom 4.4630 8.6595 6.9834
Atom 3.6120 5.7384 4.2681
Atom 2.1696 6.4989 8.0922
Atom 5.7724 0.8910 1.8697
Atom 2.5656 7.2297 5.0372
Atom 3.0464 7.8842 2.9691
100
Step 30
Atom 9.7855 3.0933 7.8776
Atom 1.4159 4.1395 4.4991
Atom 3.6852 0.0828 8.4737
Atom 5.9747 2.6451 6.0266
Atom 3.9689 1.8881 7.8109
Atom 1.1172 0.6750 7.0774
Atom 8.8970 5.9822 8.5998
Atom 9.4519 5.2343 6.0421
Atom 8.5422 8.5722 2.3878
Atom 6.8209 6.1795 6.7031
Atom 7.9662 7.0364 5.1250
Atom 3.1014 9.9767 0.2047
Atom 6.4944 9.1336 4.7400
Atom 4.2360 1.4964 4.2481
Atom 7.7779 5.7122 8.8749
Atom 2.2718 8.0763 8.3495
Atom 1.5668 5.0480 2.7225
Atom 1.7633 3.0394 9.3365
Atom 1.9576 8.5493 9.7088
Atom 4.9861 6.7920 2.7657
Atom 4.6666 4.6532 4.7328
Atom 6.6534 2.3071 7.4938
Atom 6.0971 6.9495 2.3909
Atom 7.8237 2.8758 7.5057
Atom 5.3902 6.2434 7.5439
Atom 1.2156 9.5374 7.0144
Atom 4.9666 2.5963 1.2319
Atom 6.3724 4.3394 3.2992
Atom 4.1745 8.7081 0.9103
Atom 2.1491 8.8260 6.4774
Atom 5.5071 9.9560 2.0504
Atom 0.7769 6.4782 0.8510
Atom 5.8904 5.9629 1.3113
Atom 1.2395 1.7680 5.6639
Atom 8.1054 6.2064 6.7346
Atom 9.6463 4.7529 4.5083
Atom 1.3669 9.1461 3.4102
Atom 8.1502 3.8990 9.5651
Atom 8.4080 1.5037 0.1799
Atom 6.7975 8.2551 6.6487
Atom 5.3872 8.3331 7.3596
Atom 3.6492 5.0955 3.3472
Atom 4.8424 0.4159 7.8647
Atom 3.3818 8.0043 1.8460
Atom 0.6796 8.2298 7.0180
Atom 3.6407 9.6908 8.7671
Atom 1.7929 4.9740 6.4953
Atom 5.0823 4.6499 2.7921
Atom 7.2626 6.4093 1.4586
Atom 7.2476 7.2805 7.3209
Atom 3.1702 0.4741 2.1857
Atom 0.9303 6.3108 4.4609
Atom 4.2236 7.4557 3.4625
Atom 6.0692 9.6255 2.5004
Atom 9.2061 7.5996 3.4789
Atom 9.8231 1.3112 3.3654
Atom 0.2737 8.1463 4.2460
Atom 1.4111 5.0015 4.8422
Atom 1.7571 0.4863 0.1722
Atom 1.4255 1.8513 0.9228
Atom 5.9616 9.4302 0.8348
Atom 4.9372 1.8872 8.0701
Atom 5.2617 4.2861 3.7597
Atom 1.3549 1.2554 8.2369
Atom 9.3967 1.2765 9.6167
Atom 3.0188 4.3391 3.9843
Atom 7.5324 6.4987 2.4875
Atom 0.8506 5.2567 1.7942
Atom 0.0366 6.5849 1.0682
Atom 1.4439 0.6792 5.3300
Atom 2.1265 6.1863 3.2440
Atom 2.6575 0.3190 1.4408
Atom 3.7760 1.2496 1.1607
Atom 3.8051 6.7581 2.3295
Atom 3.3343 2.3048 1.2008
Atom 3.6866 2.0728 4.8338
Atom 4.2978 7.7410 2.3894
Atom 1.9241 3.7017 7.4864
Atom 5.0872 5.7586 0.0958
Atom 4.0435 6.0687 8.9654
Atom 4.8602 6.5495 8.8932
Atom 4.8080 5.9176 8.5134
Atom 1.3643 5.7506 7.7136
Atom 5.8899 6.8685 6.4340
Atom 0.6804 4.1519 8.6655
Atom 5.0944 4.9001 8.7955
Atom 4.4597 0.9249 8.2371
Atom 2.3915 7.3675 6.2450
Atom 8.6546 5.6652 3.6427
Atom 0.2735 7.8166 9.0442
Atom 5.6865 5.9165 5.5048
Atom 5.6886 3.9845 7.6886
Atom 5.5539 3.8724 8.8277
Atom 9.8154 6.8785 5.4296
Atom 4.4174 8.6880 6.9866
Atom 3.5852 5.7318 4.2651
Atom 2.2520 6.4864 8.1001
Atom 5.7579 0.7870 1.8390
Atom 2.5810 7.1996 4.9825
Atom 3.1524 7.8367 2.9500
100
Step 40
Atom 9.7752 3.1107 7.8646
Atom 1.4662 4.1394 4.4865
Atom 3.6739 0.0302 8.5527
Atom 5.9254 2.6134 6.0303
Atom 3.9608 1.8217 7.8296
Atom 1.1815 0.6502 7.1203
Atom 8.8770 6.0153 8.6116
Atom 9.4402 5.2295 6.1021
Atom 8.4563 8.6048 2.4162
Atom 6.6905 6.2298 6.6539
Atom 7.9625 7.0013 5.1768
Atom 3.0202 0.0265 0.1008
Atom 6.4503 9.0952 4.7450
Atom 4.2718 1.4768 4.3093
Atom 7.8387 5.6845 8.8860
Atom 2.3161 8.0519 8.3549
Atom 1.6298 5.0861 2.7482
Atom 1.6719 3.0642 9.3841
Atom 1.9990 8.5272 9.7413
Atom 5.0168 6.7658 2.7225
Atom 4.6557 4.5908 4.7481
Atom 6.7089 2.3115 7.5168
Atom 6.0409 6.9063 2.3262
Atom 7.7749 2.7666 7.5599
Atom 5.4565 6.2377 7.5450
Atom 1.1242 9.5344 6.9709
Atom 4.9737 2.5306 1.2294
Atom 6.3008 4.4195 3.2648
Atom 4.1508 8.6261 0.9268
Atom 2.2101 8.8437 6.4654
Atom 5.5458 0.0050 2.0955
Atom 0.7612 6.5533 0.9224
Atom 5.9835 6.0255 1.2381
Atom 1.1974 1.7542 5.6055
Atom 8.1046 6.1437 6.6748
Atom 9.6209 4.7411 4.5657
Atom 1.4441 9.1574 3.4664
Atom 8.1213 3.9172 9.5338
Atom 8.5161 1.4102 0.2379
Atom 6.7902 8.2976 6.6886
Atom 5.3144 8.3322 7.3229
Atom 3.5503 5.1112 3.3548
Atom 4.7684 0.3977 7.8120
Atom 3.3986 7.9661 1.7377
Atom 0.6244 8.1981 7.0003
Atom 3.5591 9.7500 8.7422
Atom 1.7881 4.9838 6.4821
Atom 5.1451 4.7051 2.7463
Atom 7.3211 6.3490 1.5205
Atom 7.2089 7.2877 7.4023
Atom 3.0804 0.5286 2.2625
Atom 0.9694 6.3000 4.5517
Atom 4.2130 7.4405 3.4926
Atom 6.0857 9.6170 2.4498
Atom 9.2416 7.6266 3.4008
Atom 9.7979 1.2556 3.2889
Atom 0.2993 8.2399 4.2589
Atom 1.3904 5.0311 4.8308
Atom 1.7929 0.4773 0.2301
Atom 1.4581 1.7868 0.8806
Atom 5.9134 9.4158 0.8782
Atom 4.9645 1.8922 8.1206
Atom 5.2840 4.4113 3.7004
Atom 1.4198 1.2701 8.1898
Atom 9.3462 1.3511 9.6035
Atom 2.9938 4.3543 4.0279
Atom 7.5134 6.5452 2.4209
Atom 0.8809 5.2392 1.8068
Atom 0.0475 6.6380 1.1375
Atom 1.5257 0.7872 5.3814
Atom 2.2636 6.1423 3.2377
Atom 2.6480 0.3418 1.4659
Atom 3.7768 1.2268 1.1791
Atom 3.7120 6.7976 2.4000
Atom 3.3673 2.2709 1.2343
Atom 3.6769 1.9988 4.8423
Atom 4.2957 7.8191 2.3543
Atom 1.9416 3.7701 7.5264
Atom 5.0279 5.7417 0.0525
Atom 4.0090 6.0440 8.9261
Atom 4.8165 6.5253 8.7840
Atom 4.8783 5.9388 8.5270
Atom 1.3750 5.7512 7.7128
Atom 5.8716 6.9168 6.3894
Atom 0.6950 4.1149 8.6783
Atom 5.1125 4.8933 8.8655
Atom 4.4922 0.8895 8.2703
Atom 2.4477 7.3876 6.1222
Atom 8.6400 5.7397 3.5791
Atom 0.2309 7.8756 9.0391
Atom 5.6460 5.8866 5.4551
Atom 5.7760 3.9381 7.7237
Atom 5.6416 3.8712 8.8643
Atom 9.7290 6.8867 5.3805
Atom 4.3715 8.7161 6.9899
Atom 3.5581 5.7255 4.2620
Atom 2.3345 6.4741 8.1080
Atom 5.7429 0.6828 1.8082
Atom 2.5961 7.1692 4.9278
Atom 3.2583 7.7892 2.9309
100
Step 50
Atom 9.7649 3.1281 7.8516
Atom 1.5168 4.1395 4.4739
Atom 3.6621 9.9774 8.6319
Atom 5.8756 2.5818 6.0338
Atom 3.9526 1.7555 7.8483
Atom 1.2461 0.6253 7.1635
Atom 8.8573 6.0482 8.6232
Atom 9.4286 5.2249 6.1624
Atom 8.3703 8.6372 2.4447
Atom 6.5599 6.2800 6.6051
Atom 7.9588 6.9663 5.2284
Atom 2.9392 0.0765 9.9968
Atom 6.4061 9.0563 4.7500
Atom 4.3075 1.4572 4.3704
Atom 7.8990 5.6567 8.8970
Atom 2.3609 8.0273 8.3603
Atom 1.6929 5.1246 2.7741
Atom 1.5806 3.0886 9.4319
Atom 2.0407 8.5051 9.7738
Atom 5.0477 6.7394 2.6793
Atom 4.6447 4.5284 4.7636
Atom 6.7640 2.3159 7.5401
Atom 5.9845 6.8631 2.2615
Atom 7.7260 2.6576 7.6143
Atom 5.5228 6.2321 7.5463
Atom 1.0331 9.5313 6.9275
Atom 4.9807 2.4648 1.2270
Atom 6.2291 4.5005 3.2302
Atom 4.1272 8.5443 0.9433
Atom 2.2713 8.8612 6.4535
Atom 5.5839 0.0536 2.1407
Atom 0.7457 6.6285 0.9939
Atom 6.0762 6.0882 1.1649
Atom 1.1555 1.7404 5.5474
Atom 8.1035 6.0811 6.6150
Atom 9.5955 4.7295 4.6231
Atom 1.5215 9.1686 3.5226
Atom 8.0923 3.9353 9.5025
Atom 8.6242 1.3169 0.2958
Atom 6.7828 8.3398 6.7286
Atom 5.2413 8.3312 7.2864
Atom 3.4512 5.1272 3.3626
Atom 4.6944 0.3795 7.7595
Atom 3.4153 7.9282 1.6292
Atom 0.5694 8.1663 6.9825
Atom 3.4775 9.8092 8.7174
Atom 1.7834 4.9939 6.4686
Atom 5.2075 4.7605 2.7004
Atom 7.3795 6.2888 1.5826
Atom 7.1701 7.2947 7.4836
Atom 2.9912 0.5826 2.3393
Atom 1.0087 6.2891 4.6423
Atom 4.2025 7.4252 3.5227
Atom 6.1018 9.6078 2.3992
Atom 9.2773 7.6535 3.3225
Atom 9.7731 1.1998 3.2125
Atom 0.3252 8.3333 4.2721
Atom 1.3697 5.0610 4.8195
Atom 1.8288 0.4684 0.2879
Atom 1.4906 1.7221 0.8382
Atom 5.8646 9.4011 0.9216
Atom 4.9916 1.8972 8.1714
Atom 5.3062 4.5369 3.6410
Atom 1.4852 1.2846 8.1428
Atom 9.2961 1.4260 9.5900
Atom 2.9690 4.3697 4.0715
Atom 7.4940 6.5915 2.3546
Atom 0.9112 5.2217 1.8199
Atom 0.0582 6.6910 1.2070
Atom 1.6077 0.8952 5.4326
Atom 2.4009 6.0986 3.2313
Atom 2.6387 0.3641 1.4910
Atom 3.7777 1.2035 1.1972
Atom 3.6190 6.8368 2.4705
Atom 3.4002 2.2367 1.2676
Atom 3.6669 1.9252 4.8509
Atom 4.2938 7.8974 2.3190
Atom 1.9591 3.8383 7.5663
Atom 4.9687 5.7251 0.0095
Atom 3.9744 6.0194 8.8867
Atom 4.7729 6.5012 8.6745
Atom 4.9487 5.9605 8.5402
Atom 1.3855 5.7523 7.7118
Atom 5.8529 6.9648 6.3450
Atom 0.7095 4.0781 8.6909
Atom 5.1308 4.8865 8.9355
Atom 4.5246 0.8538 8.3037
Atom 2.5038 7.4074 5.9992
Atom 8.6256 5.8143 3.5155
Atom 0.1886 7.9346 9.0338
Atom 5.6057 5.8570 5.4054
Atom 5.8633 3.8921 7.7588
Atom 5.7294 3.8703 8.9008
Atom 9.6429 6.8948 5.3315
Atom 4.3254 8.7440 6.9936
Atom 3.5304 5.7193 4.2590
Atom 2.4171 6.4621 8.1160
Atom 5.7274 0.5784 1.7774
Atom 2.6111 7.1387 4.8729
Atom 3.3643 7.7415 2.9117
100
Step 60
Atom 9.7548 3.1455 7.8384
Atom 1.5676 4.1397 4.4615
Atom 3.6498 9.9245 8.7115
Atom 5.8252 2.5503 6.0372
Atom 3.9442 1.6895 7.8670
Atom 1.3110 0.6001 7.2071
Atom 8.8378 6.0809 8.6347
Atom 9.4171 5.2202 6.2232
Atom 8.2842 8.6693 2.4733
Atom 6.4289 6.3300 6.5568
Atom 7.9548 6.9312 5.2798
Atom 2.8584 0.1265 9.8926
Atom 6.3616 9.0169 4.7550
Atom 4.3432 1.4376 4.4312
Atom 7.9587 5.6289 8.9079
Atom 2.4061 8.0027 8.3657
Atom 1.7561 5.1637 2.7999
Atom 1.4896 3.1129 9.4797
Atom 2.0825 8.4829 9.8062
Atom 5.0788 6.7129 2.6361
Atom 4.6336 4.4660 4.7792
Atom 6.8190 2.3202 7.5636
Atom 5.9278 6.8200 2.1969
Atom 7.6770 2.5486 7.6689
Atom 5.5893 6.2265 7.5478
Atom 0.9423 9.5281 6.8841
Atom 4.9876 2.3990 1.2245
Atom 6.1571 4.5825 3.1953
Atom 4.1038 8.4627 0.9598
Atom 2.3326 8.8788 6.4419
Atom 5.6215 0.1021 2.1859
Atom 0.7306 6.7037 1.0656
Atom 6.1685 6.1510 1.0915
Atom 1.1140 1.7267 5.4894
Atom 8.1023 6.0185 6.5550
Atom 9.5703 4.7183 4.6806
Atom 1.5991 9.1796 3.5789
Atom 8.0631 3.9532 9.4710
Atom 8.7323 1.2237 0.3535
Atom 6.7752 8.3816 6.7687
Atom 5.1678 8.3300 7.2500
Atom 3.3520 5.1436 3.3706
Atom 4.6202 0.3614 7.7069
Atom 3.4319 7.8906 1.5208
Atom 0.5146 8.1342 6.9645
Atom 3.3958 9.8684 8.6926
Atom 1.7788 5.0043 6.4550
Atom 5.2696 4.8164 2.6544
Atom 7.4378 6.2285 1.6447
Atom 7.1310 7.3016 7.5650
Atom 2.9026 0.6363 2.4162
Atom 1.0482 6.2784 4.7327
Atom 4.1921 7.4099 3.5528
Atom 6.1175 9.5982 2.3484
Atom 9.3133 7.6800 3.2443
Atom 9.7486 1.1438 3.1362
Atom 0.3512 8.4264 4.2854
Atom 1.3492 5.0913 4.8082
Atom 1.8651 0.4596 0.3453
Atom 1.5229 1.6573 0.7954
Atom 5.8154 9.3863 0.9651
Atom 5.0185 1.9020 8.2223
Atom 5.3283 4.6627 3.5814
Atom 1.5511 1.2992 8.0958
Atom 9.2466 1.5010 9.5763
Atom 2.9443 4.3852 4.1152
Atom 7.4743 6.6377 2.2884
Atom 0.9417 5.2043 1.8333
Atom 0.0688 6.7441 1.2767
Atom 1.6897 1.0029 5.4837
Atom 2.5385 6.0552 3.2247
Atom 2.6297 0.3859 1.5160
Atom 3.7788 1.1798 1.2150
Atom 3.5260 6.8756 2.5412
Atom 3.4330 2.2021 1.3005
Atom 3.6569 1.8518 4.8596
Atom 4.2921 7.9758 2.2837
Atom 1.9769 3.9064 7.6060
Atom 4.9097 5.7087 9.9668
Atom 3.9398 5.9951 8.8471
Atom 4.7295 6.4773 8.5648
Atom 5.0194 5.9825 8.5530
Atom 1.3958 5.7540 7.7105
Atom 5.8340 7.0127 6.3008
Atom 0.7239 4.0416 8.7035
Atom 5.1494 4.8798 9.0055
Atom 4.5570 0.8181 8.3371
Atom 2.5598 7.4268 5.8760
Atom 8.6115 5.8890 3.4520
Atom 0.1465 7.9934 9.0283
Atom 5.5655 5.8277 5.3555
Atom 5.9507 3.8465 7.7940
Atom 5.8172 3.8696 8.9373
Atom 9.5573 6.9027 5.2826
Atom 4.2794 8.7717 6.9974
Atom 3.5025 5.7132 4.2562
Atom 2.4997 6.4502 8.1240
Atom 5.7115 0.4738 1.7466
Atom 2.6260 7.1080 4.8177
Atom 3.4703 7.6937 2.8925
100
Step 70
Atom 9.7449 3.1630 7.8250
Atom 1.6186 4.1399 4.4492
Atom 3.6374 9.8715 8.7911
Atom 5.7744 2.5189 6.0406
Atom 3.9358 1.6235 7.8857
Atom 1.3763 0.5747 7.2511
Atom 8.8185 6.1134 8.6459
Atom 9.4058 5.2157 6.2843
Atom 8.1979 8.7011 2.5019
Atom 6.2978 6.3799 6.5088
Atom 7.9509 6.8961 5.3308
Atom 2.7778 0.1766 9.7883
Atom 6.3170 8.9771 4.7600
Atom 4.3787 1.4178 4.4918
Atom 8.0178 5.6010 8.9187
Atom 2.4515 7.9779 8.3710
Atom 1.8193 5.2032 2.8257
Atom 1.3986 3.1368 9.5276
Atom 2.1243 8.4605 9.8388
Atom 5.1097 6.6865 2.5928
Atom 4.6224 4.4037 4.7949
Atom 6.8739 2.3246 7.5873
Atom 5.8707 6.7771 2.1323
Atom 7.6278 2.4398 7.7238
Atom 5.6559 6.2209 7.5493
Atom 0.8518 9.5246 6.8408
Atom 4.9945 2.3330 1.2220
Atom 6.0851 4.6651 3.1604
Atom 4.0806 8.3814 0.9764
Atom 2.3941 8.8965 6.4305
Atom 5.6584 0.1502 2.2311
Atom 0.7158 6.7791 1.1376
Atom 6.2603 6.2136 1.0180
Atom 1.0727 1.7131 5.4316
Atom 8.1008 5.9559 6.4950
Atom 9.5452 4.7073 4.7382
Atom 1.6770 9.1903 3.6353
Atom 8.0339 3.9711 9.4393
Atom 8.8406 1.1306 0.4113
Atom 6.7672 8.4230 6.8090
Atom 5.0939 8.3289 7.2139
Atom 3.2527 5.1605 3.3786
Atom 4.5459 0.3432 7.6544
Atom 3.4487 7.8531 1.4123
Atom 0.4600 8.1019 6.9465
Atom 3.3141 9.9276 8.6679
Atom 1.7744 5.0149 6.4410
Atom 5.3314 4.8726 2.6085
Atom 7.4958 6.1683 1.7070
Atom 7.0916 7.3082 7.6464
Atom 2.8146 0.6897 2.4930
Atom 1.0878 6.2677 4.8229
Atom 4.1819 7.3944 3.5830
Atom 6.1328 9.5883 2.2975
Atom 9.3495 7.7064 3.1662
Atom 9.7244 1.0875 3.0598
Atom 0.3775 8.5193 4.2991
Atom 1.3286 5.1218 4.7971
Atom 1.9015 0.4509 0.4027
Atom 1.5550 1.5925 0.7524
Atom 5.7657 9.3712 1.0087
Atom 5.0453 1.9067 8.2734
Atom 5.3503 4.7889 3.5216
Atom 1.6172 1.3138 8.0488
Atom 9.1974 1.5764 9.5625
Atom 2.9196 4.4011 4.1590
Atom 7.4546 6.6837 2.2224
Atom 0.9723 5.1869 1.8470
Atom 0.0792 6.7973 1.3465
Atom 1.7719 1.1106 5.5348
Atom 2.6763 6.0122 3.2180
Atom 2.6209 0.4070 1.5409
Atom 3.7801 1.1557 1.2324
Atom 3.4330 6.9141 2.6119
Atom 3.4658 2.1672 1.3332
Atom 3.6469 1.7788 4.8684
Atom 4.2903 8.0544 2.2483
Atom 1.9947 3.9745 7.6456
Atom 4.8507 5.6926 9.9243
Atom 3.9051 5.9710 8.8075
Atom 4.6864 6.4535 8.4547
Atom 5.0902 6.0051 8.5656
Atom 1.4060 5.7561 7.7089
Atom 5.8148 7.0604 6.2568
Atom 0.7380 4.0051 8.7159
Atom 5.1681 4.8731 9.0755
Atom 4.5893 0.7823 8.3707
Atom 2.6157 7.4458 5.7528
Atom 8.5975 5.9638 3.3885
Atom 0.1046 8.0522 9.0229
Atom 5.5253 5.7985 5.3052
Atom 6.0380 3.8012 7.8293
Atom 5.9050 3.8692 8.9736
Atom 9.4719 6.9105 5.2337
Atom 4.2335 8.7990 7.0013
Atom 3.4744 5.7072 4.2534
Atom 2.5826 6.4385 8.1320
Atom 5.6951 0.3690 1.7157
Atom 2.6408 7.0770 4.7624
Atom 3.5764 7.6458 2.8733
100
Step 80
Atom 9.7350 3.1806 7.8114
Atom 1.6696 4.1401 4.4370
Atom 3.6249 9.8186 8.8709
Atom 5.7231 2.4877 6.0440
Atom 3.9273 1.5575 7.9044
Atom 1.4419 0.5491 7.2955
Atom 8.7994 6.1458 8.6569
Atom 9.3946 5.2111 6.3460
Atom 8.1116 8.7327 2.5305
Atom 6.1665 6.4296 6.4609
Atom 7.9469 6.8610 5.3818
Atom 2.6975 0.2266 9.6840
Atom 6.2721 8.9368 4.7648
Atom 4.4140 1.3980 4.5521
Atom 8.0766 5.5730 8.9295
Atom 2.4972 7.9530 8.3762
Atom 1.8824 5.2431 2.8514
Atom 1.3077 3.1606 9.5756
Atom 2.1663 8.4380 9.8714
Atom 5.1404 6.6599 2.5495
Atom 4.6110 4.3414 4.8107
Atom 6.9287 2.3290 7.6112
Atom 5.8130 6.7345 2.0676
Atom 7.5784 2.3311 7.7789
Atom 5.7227 6.2154 7.5510
Atom 0.7617 9.5209 6.7975
Atom 5.0013 2.2670 1.2194
Atom 6.0131 4.7483 3.1252
Atom 4.0577 8.3004 0.9932
Atom 2.4559 8.9142 6.4194
Atom 5.6948 0.1979 2.2762
Atom 0.7012 6.8546 1.2097
Atom 6.3519 6.2762 0.9442
Atom 1.0317 1.6994 5.3738
Atom 8.0990 5.8934 6.4348
Atom 9.5202 4.6967 4.7960
Atom 1.7552 9.2007 3.6916
Atom 8.0045 3.9889 9.4074
Atom 8.9490 1.0376 0.4691
Atom 6.7589 8.4641 6.8494
Atom 5.0194 8.3278 7.1779
Atom 3.1535 5.1779 3.3866
Atom 4.4714 0.3249 7.6019
Atom 3.4655 7.8158 1.3039
Atom 0.4057 8.0693 6.9282
Atom 3.2323 9.9868 8.6432
Atom 1.7700 5.0257 6.4268
Atom 5.3928 4.9294 2.5627
Atom 7.5536 6.1082 1.7694
Atom 7.0518 7.3146 7.7279
Atom 2.7269 0.7428 2.5698
Atom 1.1278 6.2571 4.9129
Atom 4.1718 7.3787 3.6134
Atom 6.1476 9.5780 2.2468
Atom 9.3859 7.7324 3.0881
Atom 9.7005 1.0310 2.9834
Atom 0.4041 8.6121 4.3130
Atom 1.3080 5.1527 4.7860
Atom 1.9380 0.4422 0.4599
Atom 1.5869 1.5275 0.7090
Atom 5.7156 9.3560 1.0523
Atom 5.0718 1.9112 8.3248
Atom 5.3721 4.9156 3.4618
Atom 1.6834 1.3285 8.0019
Atom 9.1485 1.6520 9.5486
Atom 2.8951 4.4173 4.2029
Atom 7.4345 6.7296 2.1565
Atom 1.0031 5.1697 1.8612
Atom 0.0894 6.8504 1.4164
Atom 1.8543 1.2181 5.5859
Atom 2.8146 5.9695 3.2112
Atom 2.6126 0.4275 1.5657
Atom 3.7815 1.1311 1.2495
Atom 3.3401 6.9524 2.6827
Atom 3.4985 2.1320 1.3656
Atom 3.6368 1.7059 4.8773
Atom 4.2885 8.1331 2.2130
Atom 2.0128 4.0427 7.6850
Atom 4.7919 5.6768 9.8820
Atom 3.8703 5.9471 8.7677
Atom 4.6436 6.4300 8.3444
Atom 5.1610 6.0279 8.5778
Atom 1.4161 5.7587 7.7070
Atom 5.7955 7.1079 6.2129
Atom 0.7521 3.9687 8.7282
Atom 5.1870 4.8666 9.1456
Atom 4.6216 0.7465 8.4043
Atom 2.6715 7.4645 5.6296
Atom 8.5836 6.0387 3.3249
Atom 0.0629 8.1108 9.0175
Atom 5.4851 5.7696 5.2547
Atom 6.1253 3.7565 7.8647
Atom 5.9928 3.8689 9.0097
Atom 9.3869 6.9181 5.1849
Atom 4.1878 8.8260 7.0053
Atom 3.4464 5.7013 4.2505
Atom 2.6656 6.4270 8.1398
Atom 5.6782 0.2639 1.6848
Atom 2.6555 7.0459 4.7070
Atom 3.6824 7.5977 2.8541
100
Step 90
Atom 9.7253 3.1984 7.7976
Atom 1.7208 4.1403 4.4249
Atom 3.6123 9.7657 8.9507
Atom 5.6716 2.4564 6.0476
Atom 3.9186 1.4914 7.9230
Atom 1.5080 0.5233 7.3403
Atom 8.7805 6.1780 8.6677
Atom 9.3835 5.2065 6.4081
Atom 8.0250 8.7641 2.5592
Atom 6.0351 6.4791 6.4130
Atom 7.9427 6.8259 5.4327
Atom 2.6175 0.2765 9.5794
Atom 6.2269 8.8963 4.7693
Atom 4.4490 1.3781 4.6123
Atom 8.1348 5.5449 8.9401
Atom 2.5428 7.9282 8.3812
Atom 1.9456 5.2835 2.8771
Atom 1.2168 3.1842 9.6236
Atom 2.2082 8.4153 9.9042
Atom 5.1707 6.6333 2.5065
Atom 4.5994 4.2792 4.8266
Atom 6.9835 2.3336 7.6353
Atom 5.7548 6.6923 2.0027
Atom 7.5284 2.2226 7.8341
Atom 5.7898 6.2098 7.5529
Atom 0.6718 9.5170 6.7542
Atom 5.0079 2.2009 1.2166
Atom 5.9409 4.8320 3.0899
Atom 4.0349 8.2197 1.0100
Atom 2.5179 8.9320 6.4083
Atom 5.7309 0.2454 2.3215
Atom 0.6870 6.9304 1.2818
Atom 6.4430 6.3387 0.8701
Atom 0.9909 1.6858 5.3161
Atom 8.0968 5.8310 6.3747
Atom 9.4952 4.6862 4.8539
Atom 1.8339 9.2106 3.7481
Atom 7.9751 4.0065 9.3754
Atom 9.0577 0.9445 0.5270
Atom 6.7502 8.5049 6.8899
Atom 4.9443 8.3267 7.1422
Atom 3.0545 5.1957 3.3944
Atom 4.3965 0.3067 7.5494
Atom 3.4824 7.7786 1.1954
Atom 0.3519 8.0364 6.9097
Atom 3.1507 0.0458 8.6186
Atom 1.7658 5.0367 6.4122
Atom 5.4539 4.9867 2.5169
Atom 7.6112 6.0482 1.8319
Atom 7.0119 7.3208 7.8092
Atom 2.6396 0.7958 2.6468
Atom 1.1678 6.2466 5.0028
Atom 4.1618 7.3629 3.6439
Atom 6.1621 9.5673 2.1961
Atom 9.4224 7.7583 3.0102
Atom 9.6768 0.9743 2.9069
Atom 0.4309 8.7046 4.3272
Atom 1.2874 5.1839 4.7751
Atom 1.9745 0.4336 0.5167
Atom 1.6186 1.4624 0.6654
Atom 5.6651 9.3406 1.0959
Atom 5.0981 1.9155 8.3763
Atom 5.3935 5.0426 3.4018
Atom 1.7498 1.3432 7.9553
Atom 9.1000 1.7279 9.5345
Atom 2.8707 4.4339 4.2469
Atom 7.4143 6.7754 2.0907
Atom 1.0342 5.1525 1.8758
Atom 0.0994 6.9036 1.4865
Atom 1.9369 1.3254 5.6370
Atom 2.9534 5.9270 3.2043
Atom 2.6046 0.4473 1.5904
Atom 3.7831 1.1060 1.2663
Atom 3.2473 6.9906 2.7536
Atom 3.5313 2.0966 1.3978
Atom 3.6266 1.6332 4.8862
Atom 4.2866 8.2119 2.1777
Atom 2.0310 4.1110 7.7244
Atom 4.7331 5.6614 9.8400
Atom 3.8354 5.9233 8.7279
Atom 4.6008 6.4068 8.2337
Atom 5.2320 6.0509 8.5899
Atom 1.4261 5.7618 7.7050
Atom 5.7759 7.1550 6.1692
Atom 0.7660 3.9324 8.7403
Atom 5.2062 4.8601 9.2159
Atom 4.6538 0.7107 8.4380
Atom 2.7272 7.4830 5.5064
Atom 8.5698 6.1138 3.2611
Atom 0.0216 8.1692 9.0123
Atom 5.4448 5.7410 5.2040
Atom 6.2125 3.7124 7.9002
Atom 6.0807 3.8688 9.0457
Atom 9.3020 6.9257 5.1361
Atom 4.1422 8.8528 7.0093
Atom 3.4187 5.6955 4.2474
Atom 2.7489 6.4157 8.1476
Atom 5.6608 0.1583 1.6538
Atom 2.6700 7.0149 4.6516
Atom 3.7883 7.5494 2.8351
100
Step 100
Atom 9.7157 3.2163 7.7837
Atom 1.7720 4.1404 4.4129
Atom 3.5997 9.7128 9.0309
Atom 5.6199 2.4250 6.0515
Atom 3.9098 1.4252 7.9415
Atom 1.5746 0.4973 7.3854
Atom 8.7617 6.2101 8.6782
Atom 9.3726 5.2021 6.4705
Atom 7.9382 8.7953 2.5879
Atom 5.9034 6.5286 6.3650
Atom 7.9384 6.7909 5.4837
Atom 2.5377 0.3262 9.4748
Atom 6.1816 8.8554 4.7735
Atom 4.4838 1.3581 4.6723
Atom 8.1926 5.5167 8.9504
Atom 2.5884 7.9033 8.3861
Atom 2.0088 5.3244 2.9028
Atom 1.1260 3.2074 9.6716
Atom 2.2503 8.3926 9.9372
Atom 5.2009 6.6066 2.4636
Atom 4.5876 4.2172 4.8424
Atom 7.0384 2.3382 7.6597
Atom 5.6960 6.6504 1.9377
Atom 7.4781 2.1142 7.8893
Atom 5.8571 6.2040 7.5550
Atom 0.5821 9.5130 6.7108
Atom 5.0145 2.1347 1.2136
Atom 5.8685 4.9161 3.0546
Atom 4.0122 8.1395 1.0268
Atom 2.5804 8.9500 6.3974
Atom 5.7668 0.2926 2.3669
Atom 0.6732 7.0062 1.3540
Atom 6.5339 6.4011 0.7957
Atom 0.9505 1.6720 5.2585
Atom 8.0943 5.7686 6.3149
Atom 9.4704 4.6760 4.9119
Atom 1.9130 9.2201 3.8046
Atom 7.9457 4.0241 9.3433
Atom 9.1668 0.8515 0.5849
Atom 6.7412 8.5453 6.9304
Atom 4.8687 8.3257 7.1066
Atom 2.9557 5.2140 3.4021
Atom 4.3213 0.2883 7.4968
Atom 3.4996 7.7414 1.0869
Atom 0.2985 8.0031 6.8911
Atom 3.0691 0.1049 8.5940
Atom 1.7617 5.0478 6.3973
Atom 5.5146 5.0444 2.4714
Atom 7.6687 5.9884 1.8944
Atom 6.9718 7.3268 7.8904
Atom 2.5527 0.8487 2.7239
Atom 1.2081 6.2363 5.0925
Atom 4.1521 7.3468 3.6743
Atom 6.1763 9.5563 2.1454
Atom 9.4590 7.7840 2.9324
Atom 9.6535 0.9172 2.8304
Atom 0.4581 8.7968 4.3418
Atom 1.2666 5.2154 4.7643
Atom 2.0111 0.4249 0.5733
Atom 1.6503 1.3971 0.6213
Atom 5.6141 9.3251 1.1395
Atom 5.1242 1.9195 8.4281
Atom 5.4145 5.1701 3.3418
Atom 1.8164 1.3580 7.9091
Atom 9.0518 1.8041 9.5203
Atom 2.8463 4.4511 4.2911
Atom 7.3937 6.8210 2.0250
Atom 1.0655 5.1353 1.8908
Atom 0.1093 6.9567 1.5566
Atom 2.0199 1.4325 5.6882
Atom 3.0926 5.8847 3.1974
Atom 2.5969 0.4666 1.6150
Atom 3.7849 1.0804 1.2828
Atom 3.1545 7.0286 2.8245
Atom 3.5643 2.0610 1.4299
Atom 3.6162 1.5605 4.8951
Atom 4.2845 8.2906 2.1424
Atom 2.0493 4.1792 7.7637
Atom 4.6743 5.6464 9.7983
Atom 3.8003 5.8995 8.6879
Atom 4.5581 6.3839 8.1230
Atom 5.3029 6.0741 8.6020
Atom 1.4362 5.7653 7.7028
Atom 5.7561 7.2019 6.1256
Atom 0.7798 3.8961 8.7523
Atom 5.2255 4.8537 9.2863
Atom 4.6859 0.6747 8.4718
Atom 2.7828 7.5012 5.3831
Atom 8.5560 6.1889 3.1974
Atom 9.9807 8.2276 9.0070
Atom 5.4043 5.7127 5.1530
Atom 6.2995 3.6689 7.9357
Atom 6.1687 3.8690 9.0816
Atom 9.2173 6.9332 5.0873
Atom 4.0969 8.8793 7.0134
Atom 3.3913 5.6898 4.2442
Atom 2.8326 6.4046 8.1553
Atom 5.6430 0.0525 1.6228
Atom 2.6844 6.9838 4.5962
Atom 3.8941 7.5010 2.8162
100
Step 110
Atom 9.7062 3.2343 7.7697
Atom 1.8235 4.1407 4.4008
Atom 3.5871 9.6600 9.1112
Atom 5.5682 2.3936 6.0558
Atom 3.9009 1.3589 7.9597
Atom 1.6417 0.4712 7.4308
Atom 8.7429 6.2420 8.6885
Atom 9.3620 5.1979 6.5330
Atom 7.8512 8.8264 2.6165
Atom 5.7716 6.5780 6.3169
Atom 7.9338 6.7561 5.5350
Atom 2.4582 0.3757 9.3700
Atom 6.1359 8.8142 4.7774
Atom 4.5184 1.3379 4.7323
Atom 8.2500 5.4884 8.9604
Atom 2.6341 7.8786 8.3910
Atom 2.0722 5.3658 2.9286
Atom 1.0351 3.2303 9.7195
Atom 2.2924 8.3697 9.9703
Atom 5.2311 6.5799 2.4208
Atom 4.5755 4.1554 4.8580
Atom 7.0933 2.3430 7.6843
Atom 5.6368 6.6087 1.8726
Atom 7.4276 2.0058 7.9445
Atom 5.9246 6.1979 7.5570
Atom 0.4928 9.5092 6.6674
Atom 5.0209 2.0684 1.2103
Atom 5.7959 5.0006 3.0191
Atom 3.9896 8.0596 1.0434
Atom 2.6428 8.9682 6.3865
Atom 5.8024 0.3394 2.4123
Atom 0.6597 7.0822 1.4262
Atom 6.6245 6.4633 0.7208
Atom 0.9104 1.6581 5.2010
Atom 8.0915 5.7064 6.2555
Atom 9.4457 4.6660 4.9700
Atom 1.9924 9.2293 3.8610
Atom 7.9161 4.0416 9.3111
Atom 9.2761 0.7584 0.6427
Atom 6.7321 8.5854 6.9709
Atom 4.7925 8.3247 7.0712
Atom 2.8573 5.2327 3.4099
Atom 4.2457 0.2700 7.4442
Atom 3.5170 7.7042 0.9785
Atom 0.2456 7.9694 6.8724
Atom 2.9876 0.1638 8.5694
Atom 1.7577 5.0592 6.3822
Atom 5.5746 5.1025 2.4262