100
Step 0
Atom 2.3019 7.7865 4.5381
Atom 4.4705 7.5335 8.5877
Atom 2.0072 4.1184 4.6489
Atom 7.1424 1.6710 9.2040
Atom 6.6230 3.5795 7.2080
Atom 1.0536 4.6147 2.7388
Atom 8.1690 2.7388 2.0518
Atom 9.0733 1.7384 1.8193
Atom 2.1160 8.6024 1.7168
Atom 4.5905 9.5454 9.5896
Atom 0.2720 8.3953 6.1651
Atom 6.6208 6.0344 3.5175
Atom 7.7898 5.9974 7.9902
Atom 7.5167 5.1090 1.0757
Atom 9.7238 7.7810 3.9189
Atom 9.9593 2.0106 8.5507
Atom 1.6051 9.6800 8.6678
Atom 5.9234 6.4563 9.3031
Atom 3.4406 8.1608 9.2765
Atom 5.9282 3.8887 0.5005
Atom 2.1909 3.2895 5.6677
Atom 7.4940 4.3851 3.7876
Atom 2.6256 4.6736 9.7082
Atom 6.8292 7.9246 0.1454
Atom 5.0158 5.3295 9.3371
Atom 2.8138 2.8502 2.7994
Atom 7.9089 4.6481 7.2753
Atom 8.3085 3.7762 9.4177
Atom 3.9869 0.2285 8.3727
Atom 2.2757 8.5383 8.0629
Atom 6.6914 9.9373 6.0428
Atom 3.2478 6.4927 6.8187
Atom 2.9509 5.9100 8.0521
Atom 6.9088 7.6332 8.7289
Atom 3.1814 6.1932 9.6108
Atom 2.1600 1.9014 4.8775
Atom 3.4225 4.7049 7.7027
Atom 2.0016 6.2898 9.2674
Atom 1.1794 4.3798 4.1505
Atom 8.8068 2.0333 7.5159
Atom 3.7806 7.7311 5.6445
Atom 4.6049 3.2754 8.0780
Atom 7.4280 2.9398 2.6996
Atom 4.3936 3.9833 6.8992
Atom 0.7568 4.7837 9.7498
Atom 1.2371 2.2676 6.2608
Atom 4.5286 7.9187 5.2454
Atom 1.7645 3.3436 8.4475
Atom 5.8021 0.8430 6.7323
Atom 2.3044 5.6998 0.6323
Atom 0.4019 9.8185 1.4727
Atom 3.7728 8.9970 2.1316
Atom 7.4713 5.9413 0.1594
Atom 8.7248 8.8563 7.6815
Atom 2.3516 7.1194 6.4598
Atom 9.2519 7.6948 2.1553
Atom 0.9353 4.8661 5.6835
Atom 0.8968 2.3315 9.7261
Atom 8.1036 9.4100 4.4399
Atom 9.1722 5.9620 3.0593
Atom 0.0810 7.4086 4.5388
Atom 6.9113 1.0776 6.6414
Atom 8.3370 0.7498 8.8631
Atom 3.1016 9.7926 4.5649
Atom 2.8373 6.0230 2.3811
Atom 3.7499 3.3557 8.1911
Atom 5.4038 7.5176 4.5235
Atom 6.0275 9.5544 2.0585
Atom 8.5624 0.6913 3.8643
Atom 0.6804 4.2631 8.5748
Atom 2.6849 3.6510 6.4229
Atom 3.2685 8.3199 7.2147
Atom 5.0872 0.4064 5.7374
Atom 7.2738 0.2701 8.3062
Atom 8.6465 3.8341 3.0905
Atom 7.6446 9.2510 8.7747
Atom 3.9801 2.5622 8.8496
Atom 2.3195 2.5680 9.2712
Atom 5.9446 2.4806 1.5438
Atom 7.4779 3.1968 9.9078
Atom 1.7135 9.3991 9.7785
Atom 1.2708 6.9507 1.5940
Atom 3.2652 1.2680 9.7018
Atom 9.5405 0.3789 5.9654
Atom 8.4760 6.6003 7.9250
Atom 9.9365 3.4864 4.3206
Atom 4.0110 4.0803 7.9991
Atom 1.9185 9.7293 3.2936
Atom 4.6188 6.9242 7.3326
Atom 8.1450 3.4956 7.7943
Atom 6.5947 5.0412 5.3617
Atom 3.6784 2.1737 9.5800
Atom 9.2834 5.6271 6.3283
Atom 4.2689 9.6775 2.5580
Atom 8.3343 4.4674 5.8310
Atom 3.0593 2.5916 4.9533
Atom 2.6637 8.7317 6.5975
Atom 8.4018 9.9783 3.6707
Atom 6.9134 2.4739 6.1348
Atom 2.7115 9.9570 5.2805
100
Step 10
Atom 2.3582 7.7660 4.4410
Atom 4.4317 7.5835 8.5716
Atom 1.9658 4.0918 4.7146
Atom 7.1301 1.7318 9.1061
Atom 6.5816 3.6236 7.1244
Atom 1.0197 4.6530 2.6667
Atom 8.1032 2.8070 2.0241
Atom 9.1508 1.7231 1.8439
Atom 2.1253 8.6142 1.7002
Atom 4.5782 9.5610 9.5220
Atom 0.2575 8.3433 6.1250
Atom 6.6737 6.0128 3.4839
Atom 7.7677 6.0611 8.0550
Atom 7.4783 5.0221 1.0504
Atom 9.8127 7.7095 3.9436
Atom 9.9300 2.0293 8.6296
Atom 1.5984 9.6952 8.6449
Atom 5.9388 6.3181 9.2783
Atom 3.5244 8.1709 9.2174
Atom 5.9705 3.8958 0.5325
Atom 2.0411 3.2026 5.6735
Atom 7.4494 4.3892 3.6482
Atom 2.7426 4.6752 9.6795
Atom 6.7804 7.9275 0.2630
Atom 4.9320 5.2826 9.2425
Atom 2.8860 2.8818 2.7615
Atom 7.9233 4.5762 7.1898
Atom 8.3599 3.8236 9.4371
Atom 4.0218 0.2741 8.4817
Atom 2.2324 8.5987 8.0434
Atom 6.6486 0.0115 5.9965
Atom 3.2775 6.5219 6.8538
Atom 2.8578 5.8828 8.2223
Atom 6.8811 7.7559 8.7163
Atom 3.1797 6.2353 9.6194
Atom 2.1368 1.8049 4.9109
Atom 3.4100 4.7135 7.6659
Atom 1.9601 6.3171 9.3488
Atom 1.1545 4.3091 4.0956
Atom 8.8047 2.0226 7.5869
Atom 3.8842 7.7512 5.6785
Atom 4.5648 3.2924 8.0789
Atom 7.4781 2.9313 2.7027
Atom 4.3871 4.0290 6.8822
Atom 0.6651 4.7955 9.8134
Atom 1.1933 2.2532 6.2810
Atom 4.4979 7.9948 5.2702
Atom 1.8742 3.4136 8.5063
Atom 5.7020 0.8158 6.6925
Atom 2.2641 5.7002 0.5628
Atom 0.4003 9.7993 1.3887
Atom 3.7844 9.0687 2.2026
Atom 7.4691 5.9083 0.1144
Atom 8.7747 8.8097 7.7311
Atom 2.3355 7.1019 6.4858
Atom 9.2876 7.6884 2.0970
Atom 0.8598 4.8770 5.7819
Atom 1.0335 2.2913 9.5563
Atom 8.0987 9.4392 4.4204
Atom 9.1801 6.0371 3.0227
Atom 0.0256 7.4546 4.6236
Atom 6.9466 1.0222 6.5581
Atom 8.3510 0.6725 8.9513
Atom 3.0355 9.8708 4.5958
Atom 2.7190 5.9149 2.5042
Atom 3.8404 3.4876 8.1839
Atom 5.3154 7.5227 4.5594
Atom 5.9582 9.6775 1.9644
Atom 8.5694 0.7117 3.7966
Atom 0.6260 4.2079 8.6805
Atom 2.6481 3.7160 6.4578
Atom 3.2508 8.4090 7.1962
Atom 5.1434 0.3838 5.7889
Atom 7.3036 0.2211 8.3160
Atom 8.7498 3.8271 3.1123
Atom 7.6718 9.3230 8.7963
Atom 4.0299 2.4572 8.8610
Atom 2.2921 2.5772 9.2258
Atom 6.0371 2.5133 1.6202
Atom 7.4696 3.1519 9.9235
Atom 1.7633 9.4149 9.7293
Atom 1.1703 6.9485 1.7180
Atom 3.1857 1.2783 9.6206
Atom 9.6145 0.3112 5.9887
Atom 8.4303 6.5754 7.9697
Atom 9.9762 3.4214 4.3966
Atom 4.0779 4.0417 8.0236
Atom 1.9305 9.6897 3.2312
Atom 4.5378 7.0293 7.3679
Atom 8.1345 3.4279 7.7796
Atom 6.6067 5.0392 5.4345
Atom 3.6300 2.1536 9.6346
Atom 9.2844 5.5811 6.3622
Atom 4.3077 9.7140 2.4219
Atom 8.3330 4.3377 5.7721
Atom 3.0702 2.5391 4.8537
Atom 2.6761 8.6922 6.6602
Atom 8.4289 0.0055 3.6215
Atom 7.0598 2.4839 6.1369
Atom 2.8228 9.9271 5.2700
100
Step 20
Atom 2.4192 7.7434 4.3354
Atom 4.3892 7.6379 8.5540
Atom 1.9208 4.0628 4.7863
Atom 7.1165 1.7982 8.9994
Atom 6.5365 3.6713 7.0339
Atom 0.9829 4.6946 2.5881
Atom 8.0316 2.8813 1.9938
Atom 9.2350 1.7064 1.8706
Atom 2.1357 8.6268 1.6821
Atom 4.5648 9.5780 9.4484
Atom 0.2421 8.2866 6.0814
Atom 6.7317 5.9892 3.4472
Atom 7.7435 6.1300 8.1254
Atom 7.4367 4.9274 1.0232
Atom 9.9097 7.6319 3.9704
Atom 9.8981 2.0498 8.7154
Atom 1.5914 9.7118 8.6199
Atom 5.9555 6.1675 9.2512
Atom 3.6153 8.1816 9.1529
Atom 6.0167 3.9034 0.5669
Atom 1.8785 3.1082 5.6802
Atom 7.4012 4.3936 3.4966
Atom 2.8701 4.6767 9.6483
Atom 6.7271 7.9307 0.3910
Atom 4.8408 5.2316 9.1392
Atom 2.9641 2.9165 2.7205
Atom 7.9390 4.4977 7.0970
Atom 8.4158 3.8749 9.4580
Atom 4.0597 0.3235 8.5999
Atom 2.1855 8.6640 8.0221
Atom 6.6022 0.0923 5.9463
Atom 3.3096 6.5534 6.8923
Atom 2.7566 5.8529 8.4073
Atom 6.8507 7.8894 8.7026
Atom 3.1778 6.2810 9.6284
Atom 2.1114 1.7002 4.9472
Atom 3.3963 4.7230 7.6259
Atom 1.9153 6.3468 9.4370
Atom 1.1276 4.2320 4.0358
Atom 8.8025 2.0114 7.6642
Atom 3.9968 7.7733 5.7157
Atom 4.5207 3.3108 8.0799
Atom 7.5327 2.9222 2.7059
Atom 4.3797 4.0787 6.8640
Atom 0.5653 4.8081 9.8825
Atom 1.1455 2.2379 6.3031
Atom 4.4643 8.0779 5.2974
Atom 1.9937 3.4899 8.5699
Atom 5.5929 0.7862 6.6495
Atom 2.2202 5.7006 0.4870
Atom 0.3984 9.7785 1.2974
Atom 3.7969 9.1466 2.2798
Atom 7.4665 5.8719 0.0653
Atom 8.8290 8.7591 7.7850
Atom 2.3182 7.0826 6.5141
Atom 9.3264 7.6815 2.0337
Atom 0.7777 4.8888 5.8893
Atom 1.1824 2.2475 9.3715
Atom 8.0934 9.4709 4.3992
Atom 9.1885 6.1187 2.9829
Atom 9.9653 7.5047 4.7159
Atom 6.9853 0.9622 6.4677
Atom 8.3662 0.5887 9.0471
Atom 2.9637 9.9559 4.6295
Atom 2.5902 5.7974 2.6383
Atom 3.9387 3.6311 8.1760
Atom 5.2190 7.5283 4.5986
Atom 5.8830 9.8114 1.8620
Atom 8.5769 0.7342 3.7229
Atom 0.5670 4.1480 8.7951
Atom 2.6081 3.7867 6.4962
Atom 3.2314 8.5060 7.1763
Atom 5.2042 0.3589 5.8449
Atom 7.3360 0.1678 8.3268
Atom 8.8622 3.8196 3.1361
Atom 7.7013 9.4013 8.8195
Atom 4.0841 2.3434 8.8732
Atom 2.2625 2.5876 9.1759
Atom 6.1376 2.5488 1.7030
Atom 7.4608 3.1030 9.9403
Atom 1.8178 9.4322 9.6757
Atom 1.0610 6.9460 1.8530
Atom 3.0993 1.2897 9.5319
Atom 9.6949 0.2378 6.0140
Atom 8.3805 6.5482 8.0183
Atom 0.0195 3.3506 4.4793
Atom 4.1506 3.9998 8.0506
Atom 1.9436 9.6465 3.1634
Atom 4.4496 7.1433 7.4068
Atom 8.1233 3.3545 7.7636
Atom 6.6198 5.0369 5.5139
Atom 3.5774 2.1320 9.6939
Atom 9.2856 5.5311 6.3989
Atom 4.3495 9.7535 2.2739
Atom 8.3319 4.1966 5.7079
Atom 3.0819 2.4817 4.7457
Atom 2.6898 8.6492 6.7288
Atom 8.4586 0.0351 3.5680
Atom 7.2189 2.4948 6.1393
Atom 2.9439 9.8946 5.2589
100
Step 30
Atom 2.4827 7.7199 4.2253
Atom 4.3447 7.6946 8.5353
Atom 1.8739 4.0326 4.8611
Atom 7.1020 1.8677 8.8879
Atom 6.4893 3.7209 6.9401
Atom 0.9446 4.7379 2.5059
Atom 7.9570 2.9589 1.9620
Atom 9.3227 1.6891 1.8984
Atom 2.1467 8.6399 1.6633
Atom 4.5508 9.5957 9.3716
Atom 0.2265 8.2276 6.0360
Atom 6.7923 5.9645 3.4087
Atom 7.7183 6.2015 8.1989
Atom 7.3932 4.8285 0.9952
Atom 0.0111 7.5511 3.9983
Atom 9.8648 2.0712 8.8047
Atom 1.5845 9.7292 8.5939
Atom 5.9726 6.0100 9.2228
Atom 3.7097 8.1925 9.0854
Atom 6.0650 3.9115 0.6024
Atom 1.7090 3.0099 5.6876
Atom 7.3511 4.3981 3.3382
Atom 3.0032 4.6777 9.6154
Atom 6.6713 7.9342 0.5242
Atom 4.7456 5.1787 9.0310
Atom 3.0451 2.9528 2.6780
Atom 7.9554 4.4157 7.0004
Atom 8.4739 3.9283 9.4797
Atom 4.0989 0.3748 8.7228
Atom 2.1370 8.7319 7.9997
Atom 6.5540 0.1764 5.8940
Atom 3.3431 6.5859 6.9329
Atom 2.6511 5.8215 8.6002
Atom 6.8188 8.0287 8.6882
Atom 3.1759 6.3285 9.6372
Atom 2.0848 1.5913 4.9850
Atom 3.3817 4.7332 7.5845
Atom 1.8687 6.3779 9.5287
Atom 1.0996 4.1515 3.9735
Atom 8.8003 2.0000 7.7448
Atom 4.1142 7.7965 5.7547
Atom 4.4742 3.3300 8.0811
Atom 7.5898 2.9127 2.7091
Atom 4.3718 4.1308 6.8453
Atom 0.4615 4.8210 9.9546
Atom 1.0957 2.2222 6.3266
Atom 4.4291 8.1646 5.3259
Atom 2.1186 3.5695 8.6359
Atom 5.4790 0.7555 6.6051
Atom 2.1745 5.7009 0.4078
Atom 0.3965 9.7568 1.2020
Atom 3.8099 9.2278 2.3605
Atom 7.4636 5.8337 0.0140
Atom 8.8857 8.7063 7.8411
Atom 2.3002 7.0624 6.5437
Atom 9.3669 7.6743 1.9679
Atom 0.6920 4.9011 6.0014
Atom 1.3377 2.2019 9.1787
Atom 8.0881 9.5038 4.3773
Atom 9.1971 6.2033 2.9415
Atom 9.9024 7.5569 4.8121
Atom 7.0260 0.8996 6.3738
Atom 8.3820 0.5015 9.1470
Atom 2.8891 0.0443 4.6648
Atom 2.4556 5.6750 2.7783
Atom 4.0411 3.7810 8.1679
Atom 5.1184 7.5344 4.6397
Atom 5.8047 9.9510 1.7549
Atom 8.5848 0.7580 3.6462
Atom 0.5058 4.0859 8.9143
Atom 2.5665 3.8605 6.5366
Atom 3.2111 8.6072 7.1556
Atom 5.2673 0.3328 5.9035
Atom 7.3695 0.1123 8.3379
Atom 8.9794 3.8119 3.1610
Atom 7.7320 9.4831 8.8436
Atom 4.1407 2.2251 8.8857
Atom 2.2319 2.5986 9.1235
Atom 6.2426 2.5859 1.7893
Atom 7.4517 3.0520 9.9576
Atom 1.8750 9.4502 9.6196
Atom 0.9471 6.9435 1.9936
Atom 3.0092 1.3019 9.4392
Atom 9.7785 0.1615 6.0403
Atom 8.3285 6.5197 8.0691
Atom 0.0645 3.2766 4.5655
Atom 4.2264 3.9559 8.0789
Atom 1.9573 9.6016 3.0929
Atom 4.3576 7.2619 7.4477
Atom 8.1117 3.2781 7.7470
Atom 6.6334 5.0344 5.5971
Atom 3.5225 2.1098 9.7554
Atom 9.2869 5.4788 6.4370
Atom 4.3925 9.7947 2.1197
Atom 8.3311 4.0494 5.6409
Atom 3.0940 2.4216 4.6333
Atom 2.7041 8.6043 6.8004
Atom 8.4897 0.0660 3.5122
Atom 7.3848 2.5062 6.1418
Atom 3.0701 9.8608 5.2474
100
Step 40
Atom 2.5473 7.6958 4.1129
Atom 4.2990 7.7523 8.5161
Atom 1.8260 4.0019 4.9372
Atom 7.0872 1.9390 8.7737
Atom 6.4408 3.7714 6.8448
Atom 0.9056 4.7820 2.4220
Atom 7.8808 3.0381 1.9294
Atom 9.4122 1.6715 1.9265
Atom 2.1581 8.6531 1.6440
Atom 4.5363 9.6139 9.2931
Atom 0.2110 8.1673 5.9898
Atom 6.8544 5.9393 3.3694
Atom 7.6925 6.2743 8.2740
Atom 7.3488 4.7275 0.9666
Atom 0.1148 7.4687 4.0269
Atom 9.8310 2.0931 8.8959
Atom 1.5776 9.7473 8.5674
Atom 5.9899 5.8489 9.1937
Atom 3.8059 8.2032 9.0162
Atom 6.1146 3.9195 0.6383
Atom 1.5359 2.9095 5.6954
Atom 7.3001 4.4027 3.1765
Atom 3.1390 4.6784 9.5815
Atom 6.6143 7.9380 0.6602
Atom 4.6483 5.1249 8.9204
Atom 3.1275 2.9901 2.6348
Atom 7.9724 4.3316 6.9021
Atom 8.5328 3.9827 9.5015
Atom 4.1385 0.4269 8.8479
Atom 2.0878 8.8009 7.9768
Atom 6.5048 0.2623 5.8409
Atom 3.3774 6.6190 6.9747
Atom 2.5436 5.7894 8.7968
Atom 6.7858 8.1709 8.6735
Atom 3.1741 6.3769 9.6455
Atom 2.0575 1.4801 5.0235
Atom 3.3666 4.7438 7.5424
Atom 1.8215 6.4098 9.6221
Atom 1.0711 4.0691 3.9100
Atom 8.7981 1.9886 7.8270
Atom 4.2340 7.8205 5.7948
Atom 4.4263 3.3496 8.0824
Atom 7.6481 2.9031 2.7122
Atom 4.3636 4.1842 6.8265
Atom 0.3556 4.8341 0.0282
Atom 1.0448 2.2064 6.3510
Atom 4.3930 8.2534 5.3553
Atom 2.2460 3.6507 8.7033
Atom 5.3625 0.7241 6.5603
Atom 2.1278 5.7009 0.3267
Atom 0.3945 9.7346 1.1046
Atom 3.8229 9.3107 2.4432
Atom 7.4607 5.7947 9.9615
Atom 8.9436 8.6524 7.8984
Atom 2.2820 7.0415 6.5740
Atom 9.4084 7.6670 1.9008
Atom 0.6043 4.9137 6.1161
Atom 1.4964 2.1552 8.9815
Atom 8.0829 9.5372 4.3551
Atom 9.2058 6.2895 2.8992
Atom 9.8385 7.6102 4.9103
Atom 7.0678 0.8358 6.2781
Atom 8.3981 0.4127 9.2490
Atom 2.8134 0.1342 4.7011
Atom 2.3181 5.5499 2.9213
Atom 4.1457 3.9344 8.1597
Atom 5.0153 7.5406 4.6819
Atom 5.7249 0.0936 1.6452
Atom 8.5928 0.7825 3.5680
Atom 0.4434 4.0228 9.0359
Atom 2.5241 3.9358 6.5781
Atom 3.1905 8.7109 7.1347
Atom 5.3315 0.3060 5.9635
Atom 7.4035 0.0557 8.3489
Atom 9.0989 3.8041 3.1867
Atom 7.7633 9.5666 8.8681
Atom 4.1985 2.1044 8.8984
Atom 2.2009 2.6101 9.0695
Atom 6.3500 2.6237 1.8773
Atom 7.4427 2.9999 9.9752
Atom 1.9338 9.4688 9.5620
Atom 0.8309 6.9410 2.1372
Atom 2.9171 1.3146 9.3443
Atom 9.8639 0.0837 6.0671
Atom 8.2753 6.4904 8.1211
Atom 0.1105 3.2011 4.6535
Atom 4.3038 3.9112 8.1080
Atom 1.9713 9.5556 3.0210
Atom 4.2635 7.3826 7.4900
Atom 8.0999 3.2002 7.7301
Atom 6.6474 5.0317 5.6822
Atom 3.4666 2.0873 9.8182
Atom 9.2883 5.4253 6.4758
Atom 4.4360 9.8366 1.9620
Atom 8.3306 3.8991 5.5722
Atom 3.1061 2.3602 4.5188
Atom 2.7188 8.5585 6.8736
Atom 8.5216 0.0975 3.4554
Atom 7.5541 2.5177 6.1445
Atom 3.1991 9.8264 5.2357
100
Step 50
Atom 2.6126 7.6717 3.9995
Atom 4.2527 7.8105 8.4965
Atom 1.7776 3.9710 5.0141
Atom 7.0721 2.0115 8.6581
Atom 6.3917 3.8224 6.7489
Atom 0.8663 4.8266 2.3371
Atom 7.8040 3.1181 1.8964
Atom 9.5027 1.6539 1.9548
Atom 2.1698 8.6663 1.6245
Atom 4.5214 9.6323 9.2137
Atom 0.1956 8.1063 5.9432
Atom 6.9171 5.9136 3.3296
Atom 7.6665 6.3476 8.3498
Atom 7.3039 4.6254 0.9379
Atom 0.2196 7.3855 4.0558
Atom 9.7967 2.1152 8.9880
Atom 1.5708 9.7656 8.5407
Atom 6.0071 5.6861 9.1639
Atom 3.9029 8.2138 8.9461
Atom 6.1647 3.9276 0.6743
Atom 1.3611 2.8080 5.7035
Atom 7.2488 4.4074 3.0133
Atom 3.2762 4.6789 9.5471
Atom 6.5566 7.9420 0.7973
Atom 4.5499 5.0707 8.8084
Atom 3.2104 3.0280 2.5911
Atom 7.9897 4.2464 6.8032
Atom 8.5920 4.0374 9.5232
Atom 4.1783 0.4792 8.9739
Atom 2.0387 8.8705 7.9537
Atom 6.4551 0.3491 5.7874
Atom 3.4121 6.6523 7.0173
Atom 2.4353 5.7568 8.9951
Atom 6.7519 8.3146 8.6586
Atom 3.1724 6.4258 9.6534
Atom 2.0297 1.3680 5.0625
Atom 3.3512 4.7548 7.5001
Atom 1.7740 6.4422 9.7162
Atom 1.0425 3.9857 3.8460
Atom 8.7959 1.9774 7.9100
Atom 4.3552 7.8450 5.8355
Atom 4.3777 3.3692 8.0840
Atom 7.7071 2.8936 2.7151
Atom 4.3551 4.2382 6.8077
Atom 0.2490 4.8473 0.1025
Atom 0.9933 2.1906 6.3760
Atom 4.3562 8.3432 5.3852
Atom 2.3748 3.7329 8.7715
Atom 5.2444 0.6922 6.5153
Atom 2.0806 5.7006 0.2447
Atom 0.3925 9.7122 1.0059
Atom 3.8359 9.3945 2.5271
Atom 7.4578 5.7550 9.9085
Atom 9.0022 8.5979 7.9562
Atom 2.2637 7.0201 6.6047
Atom 9.4503 7.6596 1.8329
Atom 0.5156 4.9263 6.2322
Atom 1.6570 2.1081 8.7819
Atom 8.0778 9.5709 4.3330
Atom 9.2145 6.3762 2.8565
Atom 9.7739 7.6642 5.0096
Atom 7.1105 0.7714 6.1817
Atom 8.4144 0.3229 9.3521
Atom 2.7371 0.2245 4.7381
Atom 2.1790 5.4233 3.0658
Atom 4.2513 4.0895 8.1516
Atom 4.9109 7.5470 4.7248
Atom 5.6443 0.2377 1.5340
Atom 8.6009 0.8076 3.4890
Atom 0.3807 3.9592 9.1586
Atom 2.4812 4.0120 6.6203
Atom 3.1698 8.8159 7.1137
Atom 5.3961 0.2787 6.0243
Atom 7.4375 9.9987 8.3597
Atom 9.2196 3.7963 3.2127
Atom 7.7947 9.6510 8.8928
Atom 4.2569 1.9826 8.9110
Atom 2.1701 2.6220 9.0145
Atom 6.4586 2.6618 1.9661
Atom 7.4337 2.9472 9.9927
Atom 1.9938 9.4876 9.5034
Atom 0.7137 6.9384 2.2821
Atom 2.8241 1.3277 9.2482
Atom 9.9500 0.0052 6.0942
Atom 8.2213 6.4605 8.1737
Atom 0.1570 3.1247 4.7424
Atom 4.3818 3.8660 8.1377
Atom 1.9854 9.5093 2.9485
Atom 4.1683 7.5042 7.5333
Atom 8.0880 3.1216 7.7130
Atom 6.6615 5.0288 5.7685
Atom 3.4102 2.0649 9.8813
Atom 9.2896 5.3712 6.5151
Atom 4.4796 9.8790 1.8025
Atom 8.3305 3.7471 5.5026
Atom 3.1181 2.2981 4.4034
Atom 2.7336 8.5123 6.9476
Atom 8.5539 0.1294 3.3980
Atom 7.7251 2.5292 6.1472
Atom 3.3294 9.7916 5.2239
100
Step 60
Atom 2.6782 7.6479 3.8856
Atom 4.2060 7.8690 8.4766
Atom 1.7290 3.9398 5.0913
Atom 7.0567 2.0848 8.5415
Atom 6.3422 3.8735 6.6529
Atom 0.8268 4.8713 2.2516
Atom 7.7269 3.1987 1.8630
Atom 9.5936 1.6364 1.9832
Atom 2.1817 8.6794 1.6049
Atom 4.5063 9.6507 9.1337
Atom 0.1804 8.0450 5.8964
Atom 6.9803 5.8876 3.2896
Atom 7.6405 6.4211 8.4259
Atom 7.2590 4.5226 0.9091
Atom 0.3251 7.3019 4.0848
Atom 9.7621 2.1374 9.0805
Atom 1.5642 9.7841 8.5138
Atom 6.0241 5.5224 9.1335
Atom 4.0003 8.2241 8.8754
Atom 6.2151 3.9357 0.7102
Atom 1.1852 2.7059 5.7119
Atom 7.1974 4.4121 2.8492
Atom 3.4142 4.6790 9.5123
Atom 6.4984 7.9461 0.9348
Atom 4.4508 5.0164 8.6958
Atom 3.2935 3.0662 2.5473
Atom 8.0073 4.1609 6.7042
Atom 8.6511 4.0924 9.5449
Atom 4.2182 0.5315 9.1002
Atom 1.9898 8.9402 7.9303
Atom 6.4053 0.4365 5.7339
Atom 3.4471 6.6856 7.0604
Atom 2.3266 5.7239 9.1941
Atom 6.7172 8.4591 8.6437
Atom 3.1708 6.4748 9.6606
Atom 2.0014 1.2555 5.1017
Atom 3.3356 4.7660 7.4576
Atom 1.7264 6.4749 9.8106
Atom 1.0137 3.9017 3.7818
Atom 8.7937 1.9663 7.9933
Atom 4.4769 7.8698 5.8768
Atom 4.3287 3.3887 8.0857
Atom 7.7664 2.8842 2.7177
Atom 4.3464 4.2928 6.7890
Atom 0.1418 4.8604 0.1770
Atom 0.9415 2.1748 6.4016
Atom 4.3189 8.4336 5.4155
Atom 2.5044 3.8158 8.8400
Atom 5.1254 0.6600 6.4705
Atom 2.0330 5.7002 0.1623
Atom 0.3905 9.6898 0.9066
Atom 3.8487 9.4786 2.6118
Atom 7.4549 5.7152 9.8551
Atom 9.0614 8.5432 8.0142
Atom 2.2455 6.9984 6.6357
Atom 9.4925 7.6522 1.7647
Atom 0.4263 4.9389 6.3490
Atom 1.8187 2.0608 8.5810
Atom 8.0731 9.6047 4.3110
Atom 9.2234 6.4631 2.8138
Atom 9.7090 7.7185 5.1094
Atom 7.1537 0.7070 6.0850
Atom 8.4308 0.2327 9.4559
Atom 2.6607 0.3148 4.7756
Atom 2.0390 5.2960 3.2111
Atom 4.3574 4.2455 8.1437
Atom 4.8057 7.5537 4.7682
Atom 5.5633 0.3828 1.4219
Atom 8.6091 0.8329 3.4098
Atom 0.3177 3.8955 9.2817
Atom 2.4380 4.0886 6.6629
Atom 3.1492 8.9219 7.0928
Atom 5.4608 0.2510 6.0856
Atom 7.4715 9.9416 8.3705
Atom 9.3410 3.7886 3.2389
Atom 7.8264 9.7361 8.9175
Atom 4.3154 1.8604 8.9235
Atom 2.1396 2.6342 8.9588
Atom 6.5678 2.6999 2.0553
Atom 7.4250 2.8942 0.0101
Atom 2.0544 9.5066 9.4443
Atom 0.5960 6.9359 2.4278
Atom 2.7307 1.3409 9.1513
Atom 0.0364 9.9261 6.1213
Atom 8.1669 6.4299 8.2266
Atom 0.2037 3.0477 4.8319
Atom 4.4601 3.8206 8.1679
Atom 1.9996 9.4626 2.8756
Atom 4.0724 7.6264 7.5772
Atom 8.0762 3.0427 7.6958
Atom 6.6758 5.0259 5.8552
Atom 3.3536 2.0425 9.9446
Atom 9.2909 5.3168 6.5546
Atom 4.5231 9.9215 1.6418
Atom 8.3306 3.5943 5.4324
Atom 3.1300 2.2356 4.2877
Atom 2.7484 8.4660 7.0219
Atom 8.5864 0.1614 3.3404
Atom 7.8970 2.5405 6.1500
Atom 3.4603 9.7565 5.2117
100
Step 70
Atom 2.7438 7.6244 3.7716
Atom 4.1589 7.9276 8.4565
Atom 1.6802 3.9085 5.1689
Atom 7.0413 2.1584 8.4243
Atom 6.2922 3.9247 6.5572
Atom 0.7873 4.9163 2.1657
Atom 7.6497 3.2795 1.8294
Atom 9.6848 1.6193 2.0117
Atom 2.1938 8.6924 1.5852
Atom 4.4911 9.6690 9.0533
Atom 0.1654 7.9835 5.8497
Atom 7.0438 5.8613 3.2495
Atom 7.6147 6.4945 8.5020
Atom 7.2141 4.4196 0.8803
Atom 0.4310 7.2179 4.1139
Atom 9.7274 2.1596 9.1734
Atom 1.5575 9.8027 8.4870
Atom 6.0409 5.3581 9.1028
Atom 4.0980 8.2344 8.8044
Atom 6.2656 3.9438 0.7459
Atom 1.0088 2.6035 5.7205
Atom 7.1460 4.4168 2.6847
Atom 3.5526 4.6790 9.4773
Atom 6.4401 7.9503 1.0725
Atom 4.3513 4.9621 8.5826
Atom 3.3765 3.1047 2.5032
Atom 8.0253 4.0750 6.6053
Atom 8.7101 4.1475 9.5665
Atom 4.2580 0.5839 9.2266
Atom 1.9412 9.0101 7.9069
Atom 6.3554 0.5242 5.6805
Atom 3.4824 6.7185 7.1041
Atom 2.2176 5.6908 9.3932
Atom 6.6819 8.6040 8.6287
Atom 3.1693 6.5240 9.6672
Atom 1.9728 1.1428 5.1412
Atom 3.3196 4.7775 7.4152
Atom 1.6788 6.5077 9.9052
Atom 0.9849 3.8174 3.7176
Atom 8.7916 1.9555 8.0769
Atom 4.5988 7.8951 5.9184
Atom 4.2797 3.4082 8.0875
Atom 7.8259 2.8749 2.7203
Atom 4.3375 4.3478 6.7705
Atom 0.0344 4.8736 0.2515
Atom 0.8894 2.1592 6.4275
Atom 4.2812 8.5245 5.4463
Atom 2.6344 3.8988 8.9087
Atom 5.0057 0.6274 6.4259
Atom 1.9852 5.6996 0.0797
Atom 0.3886 9.6673 0.8069
Atom 3.8614 9.5629 2.6973
Atom 7.4520 5.6751 9.8017
Atom 9.1210 8.4884 8.0721
Atom 2.2275 6.9763 6.6670
Atom 9.5350 7.6447 1.6964
Atom 0.3366 4.9514 6.4661
Atom 1.9813 2.0134 8.3794
Atom 8.0685 9.6385 4.2891
Atom 9.2323 6.5500 2.7710
Atom 9.6440 7.7729 5.2092
Atom 7.1972 0.6425 5.9883
Atom 8.4471 0.1423 9.5600
Atom 2.5842 0.4050 4.8135
Atom 1.8985 5.1685 3.3568
Atom 4.4636 4.4021 8.1358
Atom 4.7000 7.5606 4.8121
Atom 5.4822 0.5283 1.3090
Atom 8.6173 0.8586 3.3305
Atom 0.2547 3.8317 9.4050
Atom 2.3948 4.1655 6.7061
Atom 3.1287 9.0286 7.0721
Atom 5.5255 0.2230 6.1473
Atom 7.5054 9.8843 8.3811
Atom 9.4627 3.7809 3.2649
Atom 7.8580 9.8218 8.9422
Atom 4.3740 1.7382 8.9358
Atom 2.1091 2.6468 8.9025
Atom 6.6774 2.7379 2.1448
Atom 7.4165 2.8409 0.0274
Atom 2.1155 9.5256 9.3846
Atom 0.4783 6.9334 2.5738
Atom 2.6370 1.3543 9.0539
Atom 0.1233 9.8470 6.1487
Atom 8.1122 6.3991 8.2797
Atom 0.2505 2.9703 4.9217
Atom 4.5384 3.7750 8.1983
Atom 2.0136 9.4159 2.8026
Atom 3.9761 7.7488 7.6216
Atom 8.0645 2.9637 7.6785
Atom 6.6901 5.0228 5.9425
Atom 3.2970 2.0202 0.0079
Atom 9.2921 5.2620 6.5943
Atom 4.5665 9.9641 1.4802
Atom 8.3309 3.4410 5.3620
Atom 3.1418 2.1729 4.1720
Atom 2.7631 8.4198 7.0964
Atom 8.6191 0.1936 3.2826
Atom 8.0695 2.5518 6.1529
Atom 3.5916 9.7211 5.1993
100
Step 80
Atom 2.8094 7.6009 3.6576
Atom 4.1116 7.9865 8.4361
Atom 1.6313 3.8771 5.2467
Atom 7.0258 2.2322 8.3068
Atom 6.2421 3.9759 6.4619
Atom 0.7478 4.9614 2.0793
Atom 7.5728 3.3604 1.7956
Atom 9.7759 1.6026 2.0401
Atom 2.2058 8.7050 1.5654
Atom 4.4756 9.6875 8.9725
Atom 0.1505 7.9220 5.8031
Atom 7.1075 5.8347 3.2091
Atom 7.5889 6.5679 8.5782
Atom 7.1694 4.3165 0.8513
Atom 0.5372 7.1337 4.1429
Atom 9.6924 2.1819 9.2663
Atom 1.5509 9.8214 8.4602
Atom 6.0574 5.1934 9.0718
Atom 4.1958 8.2447 8.7332
Atom 6.3162 3.9518 0.7813
Atom 0.8319 2.5010 5.7293
Atom 7.0948 4.4215 2.5199
Atom 3.6912 4.6787 9.4419
Atom 6.3817 7.9545 1.2101
Atom 4.2516 4.9078 8.4693
Atom 3.4595 3.1432 2.4590
Atom 8.0435 3.9889 6.5066
Atom 8.7688 4.2026 9.5880
Atom 4.2978 0.6363 9.3528
Atom 1.8927 9.0801 7.8835
Atom 6.3053 0.6121 5.6271
Atom 3.5177 6.7512 7.1481
Atom 2.1086 5.6576 9.5922
Atom 6.6462 8.7490 8.6136
Atom 3.1679 6.5732 9.6731
Atom 1.9441 1.0301 5.1808
Atom 3.3034 4.7892 7.3728
Atom 1.6313 6.5405 9.9999
Atom 0.9561 3.7329 3.6534
Atom 8.7895 1.9451 8.1606
Atom 4.7207 7.9205 5.9605
Atom 4.2306 3.4274 8.0895
Atom 7.8855 2.8656 2.7228
Atom 4.3286 4.4031 6.7522
Atom 9.9266 4.8867 0.3262
Atom 0.8371 2.1438 6.4538
Atom 4.2433 8.6156 5.4773
Atom 2.7647 3.9818 8.9774
Atom 4.8855 0.5946 6.3818
Atom 1.9372 5.6988 9.9969
Atom 0.3869 9.6449 0.7069
Atom 3.8740 9.6474 2.7834
Atom 7.4492 5.6348 9.7482
Atom 9.1809 8.4336 8.1299
Atom 2.2099 6.9539 6.6983
Atom 9.5777 7.6371 1.6280
Atom 0.2467 4.9635 6.5833
Atom 2.1443 1.9660 8.1773
Atom 8.0643 9.6722 4.2674
Atom 9.2413 6.6368 2.7282
Atom 9.5789 7.8273 5.3092
Atom 7.2411 0.5781 5.8918
Atom 8.4633 0.0519 9.6642
Atom 2.5077 0.4950 4.8519
Atom 1.7576 5.0409 3.5027
Atom 4.5697 4.5589 8.1280
Atom 4.5940 7.5677 4.8564
Atom 5.4009 0.6742 1.1956
Atom 8.6256 0.8846 3.2511
Atom 0.1917 3.7680 9.5283
Atom 2.3517 4.2423 6.7499
Atom 3.1083 9.1360 7.0514
Atom 5.5901 0.1947 6.2095
Atom 7.5391 9.8272 8.3915
Atom 9.5847 3.7731 3.2910
Atom 7.8897 9.9079 8.9668
Atom 4.4328 1.6159 8.9480
Atom 2.0790 2.6597 8.8458
Atom 6.7872 2.7758 2.2343
Atom 7.4083 2.7876 0.0445
Atom 2.1770 9.5447 9.3244
Atom 0.3607 6.9311 2.7200
Atom 2.5432 1.3678 8.9562
Atom 0.2104 9.7677 6.1764
Atom 8.0574 6.3680 8.3330
Atom 0.2974 2.8927 5.0119
Atom 4.6166 3.7292 8.2289
Atom 2.0275 9.3691 2.7294
Atom 3.8796 7.8713 7.6662
Atom 8.0527 2.8847 7.6612
Atom 6.7045 5.0197 6.0302
Atom 3.2406 1.9980 0.0711
Atom 9.2933 5.2070 6.6340
Atom 4.6096 0.0067 1.3181
Atom 8.3316 3.2874 5.2915
Atom 3.1532 2.1100 4.0563
Atom 2.7778 8.3737 7.1712
Atom 8.6520 0.2260 3.2248
Atom 8.2424 2.5631 6.1559
Atom 3.7229 9.6855 5.1868
100
Step 90
Atom 2.8749 7.5774 3.5438
Atom 4.0640 8.0456 8.4154
Atom 1.5825 3.8455 5.3246
Atom 7.0101 2.3061 8.1891
Atom 6.1919 4.0269 6.3668
Atom 0.7083 5.0066 1.9924
Atom 7.4963 3.4414 1.7616
Atom 9.8671 1.5863 2.0686
Atom 2.2178 8.7175 1.5454
Atom 4.4598 9.7063 8.8915
Atom 0.1357 7.8604 5.7567
Atom 7.1714 5.8078 3.1686
Atom 7.5632 6.6413 8.6545
Atom 7.1247 4.2134 0.8221
Atom 0.6436 7.0493 4.1718
Atom 9.6575 2.2039 9.3593
Atom 1.5443 9.8401 8.4334
Atom 6.0737 5.0282 9.0404
Atom 4.2937 8.2551 8.6618
Atom 6.3669 3.9596 0.8165
Atom 0.6548 2.3985 5.7383
Atom 7.0439 4.4262 2.3550
Atom 3.8297 4.6782 9.4063
Atom 6.3232 7.9589 1.3474
Atom 4.1515 4.8536 8.3558
Atom 3.5423 3.1818 2.4145
Atom 8.0618 3.9025 6.4081
Atom 8.8271 4.2577 9.6094
Atom 4.3374 0.6886 9.4786
Atom 1.8447 9.1503 7.8601
Atom 6.2552 0.7000 5.5738
Atom 3.5532 6.7835 7.1922
Atom 1.9997 5.6241 9.7909
Atom 6.6103 8.8940 8.5985
Atom 3.1665 6.6224 9.6784
Atom 1.9153 0.9172 5.2206
Atom 3.2869 4.8012 7.3307
Atom 1.5839 6.5734 0.0946
Atom 0.9272 3.6481 3.5891
Atom 8.7877 1.9351 8.2442
Atom 4.8425 7.9462 6.0030
Atom 4.1816 3.4464 8.0917
Atom 7.9452 2.8563 2.7253
Atom 4.3196 4.4587 6.7343
Atom 9.8184 4.8998 0.4009
Atom 0.7847 2.1287 6.4804
Atom 4.2049 8.7068 5.5085
Atom 2.8948 4.0648 9.0461
Atom 4.7649 0.5616 6.3380
Atom 1.8891 5.6978 9.9140
Atom 0.3853 9.6224 0.6066
Atom 3.8866 9.7321 2.8698
Atom 7.4465 5.5943 9.6949
Atom 9.2412 8.3787 8.1875
Atom 2.1925 6.9313 6.7299
Atom 9.6207 7.6294 1.5596
Atom 0.1569 4.9753 6.7004
Atom 2.3075 1.9187 7.9750
Atom 8.0602 9.7059 4.2459
Atom 9.2504 6.7234 2.6855
Atom 9.5137 7.8818 5.4091
Atom 7.2852 0.5137 5.7956
Atom 8.4794 9.9617 9.7685
Atom 2.4312 0.5847 4.8906
Atom 1.6163 4.9132 3.6488
Atom 4.6757 4.7160 8.1202
Atom 4.4876 7.5749 4.9013
Atom 5.3196 0.8204 1.0816
Atom 8.6338 0.9108 3.1719
Atom 0.1289 3.7043 9.6515
Atom 2.3086 4.3191 6.7943
Atom 3.0878 9.2437 7.0306
Atom 5.6545 0.1663 6.2720
Atom 7.5726 9.7702 8.4016
Atom 9.7066 3.7652 3.3169
Atom 7.9213 9.9944 8.9914
Atom 4.4916 1.4936 8.9602
Atom 2.0492 2.6728 8.7886
Atom 6.8971 2.8134 2.3239
Atom 7.4003 2.7342 0.0616
Atom 2.2389 9.5637 9.2637
Atom 0.2433 6.9288 2.8662
Atom 2.4496 1.3813 8.8580
Atom 0.2978 9.6885 6.2043
Atom 8.0026 6.3366 8.3863
Atom 0.3443 2.8152 5.1023
Atom 4.6946 3.6831 8.2596
Atom 2.0412 9.3223 2.6562
Atom 3.7831 7.9938 7.7110
Atom 8.0411 2.8057 7.6438
Atom 6.7188 5.0163 6.1183
Atom 3.1845 1.9757 0.1342
Atom 9.2943 5.1517 6.6737
Atom 4.6526 0.0493 1.1557
Atom 8.3324 3.1336 5.2209
Atom 3.1643 2.0471 3.9408
Atom 2.7925 8.3279 7.2460
Atom 8.6848 0.2584 3.1670
Atom 8.4155 2.5744 6.1589
Atom 3.8542 9.6497 5.1744
